 Gaussian 09, Revision D.01,

 -----------------
 #p b3lyp/6-31G(d)
 -----------------

 ----------------
 SM41.n.4.pdb.xyz
 ----------------
 Symbolic Z-matrix:
 Charge =  0 Multiplicity = 1

 SCF Done:  E(RB3LYP) =  -1120.33253316     A.U. after   16 cycles
 Normal termination of Gaussian 09 at Thu Aug  6 21:58:56 2020.
 Gaussian 09:  AM64L-G09RevD.01 24-Apr-2013

 ----------------------------------------------------------------------
 #p b3lyp/6-31G(d) scrf=(iefpcm,read,solvent=Water) geom=allcheck guess
 =read
 ----------------------------------------------------------------------

 Structure from the checkpoint file:  "SM41.n.4.pdb.xyz.mst.n.w.chk"
 ----------------
 SM41.n.4.pdb.xyz
 ----------------
 Charge =  0 Multiplicity = 1

                         Standard orientation:
 ---------------------------------------------------------------------
 Center     Atomic      Atomic             Coordinates (Angstroms)
 Number     Number       Type             X           Y           Z
 ---------------------------------------------------------------------
      1          8           0       -4.654648    1.133897   -0.040494
      2         16           0       -3.643772    0.071020   -0.058642
      3          7           0       -2.182386    0.902017   -0.244185
      4          6           0       -0.924741    0.307009   -0.190039
      5          7           0       -0.756353   -1.001372   -0.244782
      6          8           0        0.636689   -1.180310   -0.184065
      7          6           0        1.247704    0.025952   -0.095982
      8          6           0        2.703410    0.039970   -0.022453
      9          6           0        3.390253    1.262973    0.048692
     10          6           0        4.780064    1.280418    0.122380
     11          6           0        5.499227    0.081593    0.125556
     12          6           0        4.820527   -1.136244    0.053401
     13          6           0        3.430440   -1.161031   -0.020454
     14          6           0        0.303376    1.014110   -0.094759
     15          6           0       -3.563800   -0.712348    1.549764
     16          8           0       -3.705394   -0.972821   -1.085885
     17          1           0       -2.234761    1.865375    0.085201
     18          1           0        2.835800    2.193501    0.046754
     19          1           0        5.302779    2.229210    0.177880
     20          1           0        6.582504    0.098275    0.182563
     21          1           0        5.373871   -2.069721    0.055071
     22          1           0        2.901848   -2.104995   -0.074881
     23          1           0        0.444347    2.080826   -0.035454
     24          1           0       -3.493652    0.063836    2.311548
     25          1           0       -2.693344   -1.367083    1.570109
     26          1           0       -4.479810   -1.290596    1.669174
 ---------------------------------------------------------------------

 SCF Done:  E(RB3LYP) =  -1120.35757188     A.U. after   12 cycles

 The electronic state is 1-A.
 Alpha  occ. eigenvalues --  -89.13353 -19.24237 -19.16011 -19.15916 -14.39324
 Alpha  occ. eigenvalues --  -14.38498 -10.28247 -10.27277 -10.22592 -10.21781
 Alpha  occ. eigenvalues --  -10.20469 -10.20376 -10.20208 -10.20000 -10.19902
 Alpha  occ. eigenvalues --  -10.19856  -8.15856  -6.12400  -6.12273  -6.12112
 Alpha  occ. eigenvalues --   -1.14771  -1.12844  -1.01725  -0.96665  -0.87723
 Alpha  occ. eigenvalues --   -0.85550  -0.81369  -0.78035  -0.75613  -0.75416
 Alpha  occ. eigenvalues --   -0.67026  -0.65114  -0.62319  -0.60396  -0.57921
 Alpha  occ. eigenvalues --   -0.55424  -0.53784  -0.50817  -0.49962  -0.48790
 Alpha  occ. eigenvalues --   -0.48201  -0.47505  -0.46779  -0.45044  -0.44258
 Alpha  occ. eigenvalues --   -0.43609  -0.43375  -0.42723  -0.39917  -0.38809
 Alpha  occ. eigenvalues --   -0.37387  -0.36495  -0.35700  -0.35169  -0.33548
 Alpha  occ. eigenvalues --   -0.32811  -0.32123  -0.31277  -0.30137  -0.26570
 Alpha  occ. eigenvalues --   -0.26110  -0.23777
 Alpha virt. eigenvalues --   -0.05415  -0.01099   0.01897   0.05010   0.06384
 Alpha virt. eigenvalues --    0.07193   0.07474   0.08584   0.09907   0.11498
 Alpha virt. eigenvalues --    0.11950   0.12300   0.13589   0.15243   0.15647

 Mulliken charges:
               1
     1  O   -0.562788
     2  S    1.193162
     3  N   -0.804684
     4  C    0.539423
     5  N   -0.286821
     6  O   -0.421321
     7  C    0.401318
     8  C    0.078981
     9  C   -0.178081
    10  C   -0.153950
    11  C   -0.133832
    12  C   -0.149612
    13  C   -0.175484
    14  C   -0.297204
    15  C   -0.634714
    16  O   -0.560933
    17  H    0.432271
    18  H    0.165652
    19  H    0.160717
    20  H    0.159694
    21  H    0.160297
    22  H    0.166206
    23  H    0.196944
    24  H    0.230615
    25  H    0.233693
    26  H    0.240451
 Sum of Mulliken charges =   0.00000

 Dipole moment (field-independent basis, Debye):
    X=              6.2629    Y=              3.9800    Z=              5.3475  Tot=              9.1465
 Quadrupole moment (field-independent basis, Debye-Ang):
   XX=           -101.8696   YY=            -91.6064   ZZ=            -99.9149
   XY=              2.1717   XZ=            -17.1626   YZ=             -3.1540

 Normal termination of Gaussian 09 at Thu Aug  6 22:01:01 2020.
