 Gaussian 09, Revision D.01,

 -----------------
 #p b3lyp/6-31G(d)
 -----------------

 ----------------
 SM41.n.1.pdb.xyz
 ----------------
 Symbolic Z-matrix:
 Charge =  0 Multiplicity = 1

 SCF Done:  E(RB3LYP) =  -1120.33848414     A.U. after   15 cycles
 Normal termination of Gaussian 09 at Thu Aug  6 22:04:45 2020.
 Gaussian 09:  AM64L-G09RevD.01 24-Apr-2013

 ----------------------------------------------------------------------
 #p b3lyp/6-31G(d) scrf=(iefpcm,read,solvent=n-Octanol) geom=allcheck g
 uess=read
 ----------------------------------------------------------------------

 Structure from the checkpoint file:  "SM41.n.1.pdb.xyz.mst.n.o.chk"
 ----------------
 SM41.n.1.pdb.xyz
 ----------------
 Charge =  0 Multiplicity = 1

                         Standard orientation:
 ---------------------------------------------------------------------
 Center     Atomic      Atomic             Coordinates (Angstroms)
 Number     Number       Type             X           Y           Z
 ---------------------------------------------------------------------
      1          8           0        2.648555   -1.703944   -0.418211
      2         16           0        3.347116   -0.478457   -0.027080
      3          7           0        2.411058    0.818853   -0.586063
      4          6           0        1.035342    0.901800   -0.346766
      5          7           0        0.498441    2.083680   -0.109533
      6          8           0       -0.874094    1.830217    0.004130
      7          6           0       -1.107894    0.504524   -0.146384
      8          6           0       -2.488862    0.049485   -0.048088
      9          6           0       -2.792925   -1.312314   -0.206108
     10          6           0       -4.110474   -1.748977   -0.112947
     11          6           0       -5.137513   -0.836849    0.139690
     12          6           0       -4.840293    0.518381    0.297577
     13          6           0       -3.524652    0.962648    0.205145
     14          6           0        0.074512   -0.143326   -0.378865
     15          6           0        3.322023   -0.367012    1.765489
     16          8           0        4.699168   -0.192247   -0.501128
     17          1           0        2.906756    1.707372   -0.549102
     18          1           0       -1.998006   -2.021090   -0.402870
     19          1           0       -4.335707   -2.802227   -0.236656
     20          1           0       -6.163053   -1.179357    0.212428
     21          1           0       -5.633744    1.231115    0.493923
     22          1           0       -3.288419    2.013024    0.325901
     23          1           0        0.260310   -1.187965   -0.556457
     24          1           0        2.289500   -0.423987    2.108564
     25          1           0        3.784232    0.572326    2.067725
     26          1           0        3.893174   -1.213990    2.148222
 ---------------------------------------------------------------------

 SCF Done:  E(RB3LYP) =  -1120.35991507     A.U. after   11 cycles

 The electronic state is 1-A.
 Alpha  occ. eigenvalues --  -89.13463 -19.24349 -19.16194 -19.16168 -14.39662
 Alpha  occ. eigenvalues --  -14.38579 -10.27989 -10.27251 -10.23525 -10.21890
 Alpha  occ. eigenvalues --  -10.20579 -10.20437 -10.20353 -10.20206 -10.20119
 Alpha  occ. eigenvalues --  -10.20070  -8.15989  -6.12524  -6.12396  -6.12259
 Alpha  occ. eigenvalues --   -1.14983  -1.13180  -1.02160  -0.96921  -0.87836
 Alpha  occ. eigenvalues --   -0.85648  -0.81392  -0.78445  -0.75807  -0.75584
 Alpha  occ. eigenvalues --   -0.67064  -0.64717  -0.62424  -0.60314  -0.59819
 Alpha  occ. eigenvalues --   -0.55292  -0.54333  -0.50662  -0.50425  -0.49218
 Alpha  occ. eigenvalues --   -0.48162  -0.47800  -0.46732  -0.45250  -0.45005
 Alpha  occ. eigenvalues --   -0.44118  -0.43574  -0.42826  -0.40192  -0.38827
 Alpha  occ. eigenvalues --   -0.37342  -0.36491  -0.35571  -0.35413  -0.33620
 Alpha  occ. eigenvalues --   -0.32534  -0.32135  -0.32053  -0.30197  -0.26952
 Alpha  occ. eigenvalues --   -0.26304  -0.23773
 Alpha virt. eigenvalues --   -0.05511  -0.01247   0.01169   0.04443   0.05977
 Alpha virt. eigenvalues --    0.06829   0.08063   0.09089   0.09704   0.10288
 Alpha virt. eigenvalues --    0.11330   0.12575   0.13072   0.14582   0.14869

 Mulliken charges:
               1
     1  O   -0.542284
     2  S    1.176073
     3  N   -0.776116
     4  C    0.482502
     5  N   -0.253569
     6  O   -0.406745
     7  C    0.385717
     8  C    0.081323
     9  C   -0.173351
    10  C   -0.145878
    11  C   -0.127254
    12  C   -0.142135
    13  C   -0.170494
    14  C   -0.281309
    15  C   -0.628513
    16  O   -0.529834
    17  H    0.395945
    18  H    0.155392
    19  H    0.152725
    20  H    0.151583
    21  H    0.152307
    22  H    0.162928
    23  H    0.197578
    24  H    0.222822
    25  H    0.224746
    26  H    0.235842
 Sum of Mulliken charges =   0.00000

 Dipole moment (field-independent basis, Debye):
    X=             -3.1070    Y=             -0.4459    Z=              3.7821  Tot=              4.9149
 Quadrupole moment (field-independent basis, Debye-Ang):
   XX=            -92.9251   YY=           -100.3891   ZZ=            -97.1020
   XY=              9.7581   XZ=             12.9880   YZ=             -1.7234

 Normal termination of Gaussian 09 at Thu Aug  6 22:06:40 2020.
