 Gaussian 09, Revision D.01,

 -----------------
 #p b3lyp/6-31G(d)
 -----------------

 ----------------
 SM41.n.9.pdb.xyz
 ----------------
 Symbolic Z-matrix:
 Charge =  0 Multiplicity = 1

 SCF Done:  E(RB3LYP) =  -1120.33254183     A.U. after   16 cycles
 Normal termination of Gaussian 09 at Thu Aug  6 21:58:56 2020.
 Gaussian 09:  AM64L-G09RevD.01 24-Apr-2013

 ----------------------------------------------------------------------
 #p b3lyp/6-31G(d) scrf=(iefpcm,read,solvent=Water) geom=allcheck guess
 =read
 ----------------------------------------------------------------------

 Structure from the checkpoint file:  "SM41.n.9.pdb.xyz.mst.n.w.chk"
 ----------------
 SM41.n.9.pdb.xyz
 ----------------
 Charge =  0 Multiplicity = 1

                         Standard orientation:
 ---------------------------------------------------------------------
 Center     Atomic      Atomic             Coordinates (Angstroms)
 Number     Number       Type             X           Y           Z
 ---------------------------------------------------------------------
      1          8           0       -4.654972    1.135853   -0.048307
      2         16           0       -3.644541    0.073445   -0.066389
      3          7           0       -2.180951    0.904657   -0.210013
      4          6           0       -0.923323    0.308771   -0.166806
      5          7           0       -0.753936   -0.998190   -0.242446
      6          8           0        0.639220   -1.176452   -0.189344
      7          6           0        1.249533    0.027808   -0.083300
      8          6           0        2.705902    0.041002   -0.017450
      9          6           0        3.431049   -1.162290   -0.011226
     10          6           0        4.821538   -1.138922    0.053500
     11          6           0        5.502943    0.078841    0.113953
     12          6           0        4.785775    1.278487    0.107928
     13          6           0        3.395259    1.262422    0.042383
     14          6           0        0.305189    1.015278   -0.062817
     15          6           0       -3.597328   -0.738307    1.530019
     16          8           0       -3.688724   -0.953896   -1.111099
     17          1           0       -2.236043    1.862886    0.131004
     18          1           0        2.899324   -2.103769   -0.057559
     19          1           0        5.374360   -2.073013    0.056739
     20          1           0        6.586187    0.094394    0.164328
     21          1           0        5.310056    2.226373    0.153017
     22          1           0        2.843836    2.195789    0.035080
     23          1           0        0.445816    2.080654    0.015733
     24          1           0       -3.538548    0.024293    2.305091
     25          1           0       -2.731265   -1.397234    1.556411
     26          1           0       -4.520275   -1.313343    1.622487
 ---------------------------------------------------------------------

 SCF Done:  E(RB3LYP) =  -1120.35757260     A.U. after   12 cycles

 The electronic state is 1-A.
 Alpha  occ. eigenvalues --  -89.13355 -19.24232 -19.16003 -19.15895 -14.39326
 Alpha  occ. eigenvalues --  -14.38490 -10.28257 -10.27264 -10.22584 -10.21782
 Alpha  occ. eigenvalues --  -10.20460 -10.20378 -10.20206 -10.19997 -10.19893
 Alpha  occ. eigenvalues --  -10.19863  -8.15855  -6.12400  -6.12272  -6.12111
 Alpha  occ. eigenvalues --   -1.14799  -1.12860  -1.01729  -0.96671  -0.87724
 Alpha  occ. eigenvalues --   -0.85562  -0.81362  -0.78008  -0.75609  -0.75409
 Alpha  occ. eigenvalues --   -0.67061  -0.65118  -0.62321  -0.60401  -0.57930
 Alpha  occ. eigenvalues --   -0.55429  -0.53807  -0.50816  -0.49959  -0.48801
 Alpha  occ. eigenvalues --   -0.48202  -0.47497  -0.46771  -0.45049  -0.44242
 Alpha  occ. eigenvalues --   -0.43611  -0.43379  -0.42711  -0.39915  -0.38802
 Alpha  occ. eigenvalues --   -0.37387  -0.36497  -0.35703  -0.35159  -0.33543
 Alpha  occ. eigenvalues --   -0.32816  -0.32107  -0.31269  -0.30123  -0.26560
 Alpha  occ. eigenvalues --   -0.26104  -0.23778
 Alpha virt. eigenvalues --   -0.05397  -0.01098   0.01929   0.05020   0.06432
 Alpha virt. eigenvalues --    0.07254   0.07439   0.08594   0.09918   0.11518
 Alpha virt. eigenvalues --    0.11965   0.12303   0.13618   0.15264   0.15626

 Mulliken charges:
               1
     1  O   -0.562505
     2  S    1.192544
     3  N   -0.804990
     4  C    0.540763
     5  N   -0.287071
     6  O   -0.421037
     7  C    0.401845
     8  C    0.078625
     9  C   -0.175006
    10  C   -0.149895
    11  C   -0.133847
    12  C   -0.153680
    13  C   -0.178620
    14  C   -0.297701
    15  C   -0.633769
    16  O   -0.561258
    17  H    0.432655
    18  H    0.166204
    19  H    0.160261
    20  H    0.159679
    21  H    0.160722
    22  H    0.165629
    23  H    0.196731
    24  H    0.230430
    25  H    0.233329
    26  H    0.239960
 Sum of Mulliken charges =   0.00000

 Dipole moment (field-independent basis, Debye):
    X=              6.1670    Y=              3.9036    Z=              5.4211  Tot=              9.0917
 Quadrupole moment (field-independent basis, Debye-Ang):
   XX=           -101.2481   YY=            -91.4996   ZZ=           -100.0856
   XY=              2.5127   XZ=            -17.3891   YZ=             -3.0874

 Normal termination of Gaussian 09 at Thu Aug  6 22:01:00 2020.
