 Gaussian 09, Revision D.01,

 -----------------
 #p b3lyp/6-31G(d)
 -----------------

 ----------------
 SM41.n.1.pdb.xyz
 ----------------
 Symbolic Z-matrix:
 Charge =  0 Multiplicity = 1

 SCF Done:  E(RB3LYP) =  -1120.33518735     A.U. after   15 cycles
 Normal termination of Gaussian 09 at Thu Aug  6 21:59:02 2020.
 Gaussian 09:  AM64L-G09RevD.01 24-Apr-2013

 ----------------------------------------------------------------------
 #p b3lyp/6-31G(d) scrf=(iefpcm,read,solvent=Water) geom=allcheck guess
 =read
 ----------------------------------------------------------------------

 Structure from the checkpoint file:  "SM41.n.1.pdb.xyz.mst.n.w.chk"
 ----------------
 SM41.n.1.pdb.xyz
 ----------------
 Charge =  0 Multiplicity = 1

                         Standard orientation:
 ---------------------------------------------------------------------
 Center     Atomic      Atomic             Coordinates (Angstroms)
 Number     Number       Type             X           Y           Z
 ---------------------------------------------------------------------
      1          8           0       -2.554160   -1.696981   -0.004878
      2         16           0       -3.300859   -0.449860    0.205156
      3          7           0       -2.376524    0.799315   -0.500981
      4          6           0       -0.997360    0.876213   -0.262538
      5          7           0       -0.458592    2.062096   -0.048527
      6          8           0        0.919371    1.817074    0.037487
      7          6           0        1.154337    0.489839   -0.107801
      8          6           0        2.541801    0.041343   -0.040916
      9          6           0        2.840452   -1.328844   -0.125102
     10          6           0        4.161410   -1.761901   -0.066130
     11          6           0        5.198601   -0.836406    0.079884
     12          6           0        4.906893    0.527020    0.165829
     13          6           0        3.587023    0.966524    0.105738
     14          6           0       -0.030241   -0.162721   -0.306392
     15          6           0       -4.736467   -0.397954   -0.857678
     16          8           0       -3.705195   -0.100292    1.574727
     17          1           0       -2.843130    1.703799   -0.391000
     18          1           0        2.037843   -2.049248   -0.235813
     19          1           0        4.382472   -2.821401   -0.132020
     20          1           0        6.227476   -1.176102    0.126306
     21          1           0        5.707985    1.249793    0.277986
     22          1           0        3.358839    2.023667    0.170783
     23          1           0       -0.208028   -1.211382   -0.465409
     24          1           0       -4.424836   -0.621032   -1.876657
     25          1           0       -5.192463    0.589888   -0.791515
     26          1           0       -5.425424   -1.157189   -0.486665
 ---------------------------------------------------------------------

 SCF Done:  E(RB3LYP) =  -1120.35651713     A.U. after   12 cycles

 The electronic state is 1-A.
 Alpha  occ. eigenvalues --  -89.13351 -19.24264 -19.16251 -19.16168 -14.39254
 Alpha  occ. eigenvalues --  -14.38557 -10.27936 -10.27089 -10.22934 -10.21732
 Alpha  occ. eigenvalues --  -10.20324 -10.20159 -10.20155 -10.19952 -10.19853
 Alpha  occ. eigenvalues --  -10.19823  -8.15931  -6.12462  -6.12338  -6.12188
 Alpha  occ. eigenvalues --   -1.14825  -1.12862  -1.01713  -0.96575  -0.87648
 Alpha  occ. eigenvalues --   -0.85604  -0.81272  -0.78255  -0.75557  -0.75338
 Alpha  occ. eigenvalues --   -0.66540  -0.64400  -0.62088  -0.59834  -0.59343
 Alpha  occ. eigenvalues --   -0.54917  -0.53786  -0.50588  -0.49841  -0.49242
 Alpha  occ. eigenvalues --   -0.47949  -0.47608  -0.46247  -0.44923  -0.44126
 Alpha  occ. eigenvalues --   -0.43791  -0.43270  -0.42495  -0.40394  -0.38512
 Alpha  occ. eigenvalues --   -0.37368  -0.36296  -0.36172  -0.35120  -0.33522
 Alpha  occ. eigenvalues --   -0.32854  -0.32461  -0.31754  -0.30016  -0.26485
 Alpha  occ. eigenvalues --   -0.26072  -0.23656
 Alpha virt. eigenvalues --   -0.05329  -0.01069   0.01367   0.04625   0.05803
 Alpha virt. eigenvalues --    0.06847   0.08524   0.09313   0.09501   0.10201
 Alpha virt. eigenvalues --    0.11795   0.12982   0.13943   0.15245   0.15426

 Mulliken charges:
               1
     1  O   -0.561763
     2  S    1.173205
     3  N   -0.791821
     4  C    0.501105
     5  N   -0.283491
     6  O   -0.415052
     7  C    0.390516
     8  C    0.080359
     9  C   -0.179061
    10  C   -0.153567
    11  C   -0.134674
    12  C   -0.149882
    13  C   -0.176577
    14  C   -0.274560
    15  C   -0.633038
    16  O   -0.538922
    17  H    0.422657
    18  H    0.164195
    19  H    0.160440
    20  H    0.159210
    21  H    0.159931
    22  H    0.165413
    23  H    0.197310
    24  H    0.237795
    25  H    0.237355
    26  H    0.242918
 Sum of Mulliken charges =   0.00000

 Dipole moment (field-independent basis, Debye):
    X=             -1.0507    Y=             -0.6934    Z=             -3.8947  Tot=              4.0931
 Quadrupole moment (field-independent basis, Debye-Ang):
   XX=            -58.4825   YY=           -100.6519   ZZ=           -105.0424
   XY=             -8.6160   XZ=             16.2398   YZ=              1.0028

 Normal termination of Gaussian 09 at Thu Aug  6 22:01:33 2020.
