 Gaussian 09, Revision D.01,

 -----------------
 #p b3lyp/6-31G(d)
 -----------------

 ----------------
 SM41.n.3.pdb.xyz
 ----------------
 Symbolic Z-matrix:
 Charge =  0 Multiplicity = 1

 SCF Done:  E(RB3LYP) =  -1120.33659569     A.U. after   16 cycles
 Normal termination of Gaussian 09 at Thu Aug  6 22:04:53 2020.
 Gaussian 09:  AM64L-G09RevD.01 24-Apr-2013

 ----------------------------------------------------------------------
 #p b3lyp/6-31G(d) scrf=(iefpcm,read,solvent=n-Octanol) geom=allcheck g
 uess=read
 ----------------------------------------------------------------------

 Structure from the checkpoint file:  "SM41.n.3.pdb.xyz.mst.n.o.chk"
 ----------------
 SM41.n.3.pdb.xyz
 ----------------
 Charge =  0 Multiplicity = 1

                         Standard orientation:
 ---------------------------------------------------------------------
 Center     Atomic      Atomic             Coordinates (Angstroms)
 Number     Number       Type             X           Y           Z
 ---------------------------------------------------------------------
      1          8           0        4.623037    1.170327    0.018586
      2         16           0        3.599777    0.143009    0.230193
      3          7           0        2.202371    0.826505   -0.476772
      4          6           0        0.930557    0.279666   -0.314953
      5          7           0        0.756924   -1.026351   -0.253087
      6          8           0       -0.627448   -1.196826   -0.133682
      7          6           0       -1.238795    0.011126   -0.145907
      8          6           0       -2.692307    0.033124   -0.037478
      9          6           0       -3.378867    1.257451   -0.070389
     10          6           0       -4.765669    1.284862    0.032249
     11          6           0       -5.483526    0.093830    0.167570
     12          6           0       -4.806212   -1.126587    0.200021
     13          6           0       -3.417804   -1.161030    0.098785
     14          6           0       -0.294408    0.994514   -0.256384
     15          6           0        3.883107   -1.266043   -0.836729
     16          8           0        3.324903   -0.346314    1.582793
     17          1           0        2.260252    1.841943   -0.471207
     18          1           0       -2.823482    2.181723   -0.177097
     19          1           0       -5.287844    2.235652    0.006687
     20          1           0       -6.564916    0.117357    0.248090
     21          1           0       -5.359072   -2.053198    0.305655
     22          1           0       -2.886570   -2.105279    0.123949
     23          1           0       -0.440810    2.061080   -0.283791
     24          1           0        4.099836   -0.904241   -1.841548
     25          1           0        2.978426   -1.873451   -0.819544
     26          1           0        4.732283   -1.813793   -0.427564
 ---------------------------------------------------------------------

 SCF Done:  E(RB3LYP) =  -1120.35899778     A.U. after   11 cycles

 The electronic state is 1-A.
 Alpha  occ. eigenvalues --  -89.12911 -19.24370 -19.15708 -19.15649 -14.39303
 Alpha  occ. eigenvalues --  -14.38451 -10.28034 -10.27385 -10.22720 -10.21976
 Alpha  occ. eigenvalues --  -10.20780 -10.20664 -10.20424 -10.20268 -10.20190
 Alpha  occ. eigenvalues --  -10.20119  -8.15465  -6.12014  -6.11864  -6.11719
 Alpha  occ. eigenvalues --   -1.15028  -1.12512  -1.01401  -0.96606  -0.87864
 Alpha  occ. eigenvalues --   -0.85570  -0.81559  -0.78314  -0.75860  -0.75606
 Alpha  occ. eigenvalues --   -0.66531  -0.65389  -0.62560  -0.60712  -0.58088
 Alpha  occ. eigenvalues --   -0.55698  -0.53413  -0.51118  -0.49536  -0.48911
 Alpha  occ. eigenvalues --   -0.48233  -0.47638  -0.47080  -0.45249  -0.44377
 Alpha  occ. eigenvalues --   -0.43726  -0.43551  -0.43126  -0.40015  -0.38981
 Alpha  occ. eigenvalues --   -0.37666  -0.36545  -0.35545  -0.35470  -0.32905
 Alpha  occ. eigenvalues --   -0.32441  -0.31849  -0.31159  -0.30243  -0.26620
 Alpha  occ. eigenvalues --   -0.26210  -0.23826
 Alpha virt. eigenvalues --   -0.05560  -0.01296   0.01437   0.04767   0.06339
 Alpha virt. eigenvalues --    0.06670   0.07860   0.08451   0.09607   0.11051
 Alpha virt. eigenvalues --    0.11396   0.12137   0.12958   0.14696   0.15430

 Mulliken charges:
               1
     1  O   -0.544147
     2  S    1.184980
     3  N   -0.818066
     4  C    0.540889
     5  N   -0.255878
     6  O   -0.409716
     7  C    0.391052
     8  C    0.082829
     9  C   -0.172752
    10  C   -0.145803
    11  C   -0.127053
    12  C   -0.141930
    13  C   -0.170063
    14  C   -0.298132
    15  C   -0.645096
    16  O   -0.523315
    17  H    0.399099
    18  H    0.153482
    19  H    0.152900
    20  H    0.152031
    21  H    0.152988
    22  H    0.163880
    23  H    0.182864
    24  H    0.222337
    25  H    0.246193
    26  H    0.226427
 Sum of Mulliken charges =   0.00000

 Dipole moment (field-independent basis, Debye):
    X=             -4.9127    Y=              1.6244    Z=             -3.1619  Tot=              6.0639
 Quadrupole moment (field-independent basis, Debye-Ang):
   XX=            -93.4297   YY=            -89.0395   ZZ=           -104.8239
   XY=             -9.4781   XZ=            -12.2327   YZ=              0.6139

 Normal termination of Gaussian 09 at Thu Aug  6 22:06:45 2020.
