 Gaussian 09, Revision D.01,

 -----------------
 #p b3lyp/6-31G(d)
 -----------------

 -----------------
 SM41.n.10.pdb.xyz
 -----------------
 Symbolic Z-matrix:
 Charge =  0 Multiplicity = 1

 SCF Done:  E(RB3LYP) =  -1120.33653663     A.U. after   16 cycles
 Normal termination of Gaussian 09 at Thu Aug  6 22:04:55 2020.
 Gaussian 09:  AM64L-G09RevD.01 24-Apr-2013

 ----------------------------------------------------------------------
 #p b3lyp/6-31G(d) scrf=(iefpcm,read,solvent=n-Octanol) geom=allcheck g
 uess=read
 ----------------------------------------------------------------------

 Structure from the checkpoint file:  "SM41.n.10.pdb.xyz.mst.n.o.chk"
 -----------------
 SM41.n.10.pdb.xyz
 -----------------
 Charge =  0 Multiplicity = 1

                         Standard orientation:
 ---------------------------------------------------------------------
 Center     Atomic      Atomic             Coordinates (Angstroms)
 Number     Number       Type             X           Y           Z
 ---------------------------------------------------------------------
      1          8           0       -3.329325   -0.356555    1.577537
      2         16           0       -3.600013    0.141046    0.226656
      3          7           0       -2.202067    0.827798   -0.469029
      4          6           0       -0.930163    0.282460   -0.307941
      5          7           0       -0.756358   -1.023343   -0.239556
      6          8           0        0.627994   -1.193221   -0.122181
      7          6           0        1.239523    0.014401   -0.142755
      8          6           0        2.692302    0.035298   -0.037627
      9          6           0        3.380285    1.257783   -0.065872
     10          6           0        4.767813    1.282805    0.034125
     11          6           0        5.483028    0.089729    0.163451
     12          6           0        4.803843   -1.129504    0.191565
     13          6           0        3.415085   -1.161043    0.091448
     14          6           0        0.295862    0.997742   -0.256303
     15          6           0       -3.881081   -1.260727   -0.847816
     16          8           0       -4.621730    1.169397    0.018766
     17          1           0       -2.263087    1.842852   -0.469959
     18          1           0        2.826600    2.184138   -0.165832
     19          1           0        5.290638    2.232828    0.012824
     20          1           0        6.564992    0.111481    0.240214
     21          1           0        5.356035   -2.058014    0.290460
     22          1           0        2.882013   -2.104232    0.113294
     23          1           0        0.443048    2.063737   -0.291608
     24          1           0       -2.978558   -1.871512   -0.829128
     25          1           0       -4.092768   -0.892688   -1.850111
     26          1           0       -4.734213   -1.807133   -0.443181
 ---------------------------------------------------------------------

 SCF Done:  E(RB3LYP) =  -1120.35904682     A.U. after   11 cycles

 The electronic state is 1-A.
 Alpha  occ. eigenvalues --  -89.12922 -19.24364 -19.15709 -19.15622 -14.39317
 Alpha  occ. eigenvalues --  -14.38449 -10.28058 -10.27372 -10.22722 -10.21953
 Alpha  occ. eigenvalues --  -10.20786 -10.20659 -10.20417 -10.20265 -10.20186
 Alpha  occ. eigenvalues --  -10.20122  -8.15476  -6.12025  -6.11875  -6.11729
 Alpha  occ. eigenvalues --   -1.15039  -1.12546  -1.01408  -0.96648  -0.87883
 Alpha  occ. eigenvalues --   -0.85580  -0.81571  -0.78355  -0.75856  -0.75614
 Alpha  occ. eigenvalues --   -0.66584  -0.65401  -0.62570  -0.60716  -0.58103
 Alpha  occ. eigenvalues --   -0.55712  -0.53445  -0.51120  -0.49549  -0.48930
 Alpha  occ. eigenvalues --   -0.48241  -0.47662  -0.47080  -0.45252  -0.44389
 Alpha  occ. eigenvalues --   -0.43733  -0.43571  -0.43119  -0.40019  -0.39003
 Alpha  occ. eigenvalues --   -0.37669  -0.36543  -0.35549  -0.35475  -0.32905
 Alpha  occ. eigenvalues --   -0.32456  -0.31849  -0.31161  -0.30251  -0.26616
 Alpha  occ. eigenvalues --   -0.26203  -0.23829
 Alpha virt. eigenvalues --   -0.05549  -0.01302   0.01484   0.04794   0.06356
 Alpha virt. eigenvalues --    0.06696   0.07881   0.08445   0.09629   0.11069
 Alpha virt. eigenvalues --    0.11429   0.12142   0.12958   0.14701   0.15421

 Mulliken charges:
               1
     1  O   -0.524743
     2  S    1.185066
     3  N   -0.818404
     4  C    0.541518
     5  N   -0.256518
     6  O   -0.409843
     7  C    0.391728
     8  C    0.082936
     9  C   -0.173102
    10  C   -0.145702
    11  C   -0.127092
    12  C   -0.141988
    13  C   -0.170045
    14  C   -0.298147
    15  C   -0.644673
    16  O   -0.543680
    17  H    0.399561
    18  H    0.153443
    19  H    0.152951
    20  H    0.151932
    21  H    0.152962
    22  H    0.164074
    23  H    0.182876
    24  H    0.245905
    25  H    0.222542
    26  H    0.226443
 Sum of Mulliken charges =   0.00000

 Dipole moment (field-independent basis, Debye):
    X=              4.9116    Y=              1.6595    Z=             -3.2269  Tot=              6.1066
 Quadrupole moment (field-independent basis, Debye-Ang):
   XX=            -93.4518   YY=            -89.0296   ZZ=           -104.7603
   XY=              9.3507   XZ=             12.3514   YZ=              0.7046

 Normal termination of Gaussian 09 at Thu Aug  6 22:06:54 2020.
