 Gaussian 09, Revision D.01,

 -----------------
 #p b3lyp/6-31G(d)
 -----------------

 -----------------
 SM41.n.10.pdb.xyz
 -----------------
 Symbolic Z-matrix:
 Charge =  0 Multiplicity = 1

 SCF Done:  E(RB3LYP) =  -1120.33567930     A.U. after   16 cycles
 Normal termination of Gaussian 09 at Thu Aug  6 21:59:16 2020.
 Gaussian 09:  AM64L-G09RevD.01 24-Apr-2013

 ----------------------------------------------------------------------
 #p b3lyp/6-31G(d) scrf=(iefpcm,read,solvent=Water) geom=allcheck guess
 =read
 ----------------------------------------------------------------------

 Structure from the checkpoint file:  "SM41.n.10.pdb.xyz.mst.n.w.chk"
 -----------------
 SM41.n.10.pdb.xyz
 -----------------
 Charge =  0 Multiplicity = 1

                         Standard orientation:
 ---------------------------------------------------------------------
 Center     Atomic      Atomic             Coordinates (Angstroms)
 Number     Number       Type             X           Y           Z
 ---------------------------------------------------------------------
      1          8           0       -3.397360   -0.543172    1.489228
      2         16           0       -3.610859    0.121400    0.196753
      3          7           0       -2.188492    0.865762   -0.348531
      4          6           0       -0.925663    0.297836   -0.213927
      5          7           0       -0.759231   -1.010680   -0.148883
      6          8           0        0.631308   -1.187852   -0.070625
      7          6           0        1.245353    0.018654   -0.098733
      8          6           0        2.702483    0.035206   -0.027382
      9          6           0        3.392595    1.256751   -0.076217
     10          6           0        4.782888    1.277670   -0.007446
     11          6           0        5.498738    0.082635    0.109047
     12          6           0        4.816590   -1.134583    0.156957
     13          6           0        3.426259   -1.162960    0.089728
     14          6           0        0.304608    1.006086   -0.188558
     15          6           0       -3.888260   -1.130227   -1.046879
     16          8           0       -4.621526    1.180266    0.098556
     17          1           0       -2.236743    1.880558   -0.255305
     18          1           0        2.839891    2.184530   -0.168065
     19          1           0        5.307949    2.226531   -0.045901
     20          1           0        6.581873    0.102650    0.162608
     21          1           0        5.367793   -2.064469    0.247660
     22          1           0        2.893530   -2.105626    0.126829
     23          1           0        0.451225    2.072854   -0.227690
     24          1           0       -3.008748   -1.771979   -1.075939
     25          1           0       -4.050912   -0.636607   -2.004529
     26          1           0       -4.770976   -1.692773   -0.742633
 ---------------------------------------------------------------------

 SCF Done:  E(RB3LYP) =  -1120.35753758     A.U. after   11 cycles

 The electronic state is 1-A.
 Alpha  occ. eigenvalues --  -89.13276 -19.24303 -19.16052 -19.15939 -14.39187
 Alpha  occ. eigenvalues --  -14.38482 -10.28119 -10.27268 -10.22498 -10.21785
 Alpha  occ. eigenvalues --  -10.20465 -10.20369 -10.20211 -10.19992 -10.19901
 Alpha  occ. eigenvalues --  -10.19852  -8.15810  -6.12357  -6.12225  -6.12057
 Alpha  occ. eigenvalues --   -1.14878  -1.12777  -1.01621  -0.96636  -0.87695
 Alpha  occ. eigenvalues --   -0.85517  -0.81399  -0.78253  -0.75598  -0.75391
 Alpha  occ. eigenvalues --   -0.66773  -0.65147  -0.62321  -0.60416  -0.57919
 Alpha  occ. eigenvalues --   -0.55436  -0.53399  -0.50877  -0.49750  -0.48701
 Alpha  occ. eigenvalues --   -0.48245  -0.47678  -0.46783  -0.44995  -0.44094
 Alpha  occ. eigenvalues --   -0.43546  -0.43424  -0.42770  -0.39913  -0.39073
 Alpha  occ. eigenvalues --   -0.37682  -0.36385  -0.35787  -0.35158  -0.33270
 Alpha  occ. eigenvalues --   -0.32787  -0.32118  -0.31484  -0.30115  -0.26476
 Alpha  occ. eigenvalues --   -0.26058  -0.23750
 Alpha virt. eigenvalues --   -0.05407  -0.01097   0.01791   0.04917   0.06641
 Alpha virt. eigenvalues --    0.06811   0.07718   0.08597   0.09923   0.11462
 Alpha virt. eigenvalues --    0.11726   0.12697   0.13439   0.15206   0.15821

 Mulliken charges:
               1
     1  O   -0.554761
     2  S    1.194342
     3  N   -0.817982
     4  C    0.546560
     5  N   -0.287835
     6  O   -0.419279
     7  C    0.399032
     8  C    0.079686
     9  C   -0.178647
    10  C   -0.153950
    11  C   -0.133829
    12  C   -0.149836
    13  C   -0.175515
    14  C   -0.296264
    15  C   -0.636841
    16  O   -0.563832
    17  H    0.431230
    18  H    0.165640
    19  H    0.160728
    20  H    0.159619
    21  H    0.160230
    22  H    0.166212
    23  H    0.197023
    24  H    0.238755
    25  H    0.231812
    26  H    0.237702
 Sum of Mulliken charges =   0.00000

 Dipole moment (field-independent basis, Debye):
    X=              5.2125    Y=              2.6421    Z=             -3.8918  Tot=              7.0212
 Quadrupole moment (field-independent basis, Debye-Ang):
   XX=            -93.9952   YY=            -89.0198   ZZ=           -103.9797
   XY=              8.1982   XZ=             14.9565   YZ=              2.0369

 Normal termination of Gaussian 09 at Thu Aug  6 22:01:37 2020.
