 Gaussian 09, Revision D.01,

 -----------------
 #p b3lyp/6-31G(d)
 -----------------

 ----------------
 SM41.n.6.pdb.xyz
 ----------------
 Symbolic Z-matrix:
 Charge =  0 Multiplicity = 1

 SCF Done:  E(RB3LYP) =  -1120.33858569     A.U. after   15 cycles
 Normal termination of Gaussian 09 at Thu Aug  6 22:06:27 2020.
 Gaussian 09:  AM64L-G09RevD.01 24-Apr-2013

 ----------------------------------------------------------------------
 #p b3lyp/6-31G(d) scrf=(iefpcm,read,solvent=n-Octanol) geom=allcheck g
 uess=read
 ----------------------------------------------------------------------

 Structure from the checkpoint file:  "SM41.n.6.pdb.xyz.mst.n.o.chk"
 ----------------
 SM41.n.6.pdb.xyz
 ----------------
 Charge =  0 Multiplicity = 1

                         Standard orientation:
 ---------------------------------------------------------------------
 Center     Atomic      Atomic             Coordinates (Angstroms)
 Number     Number       Type             X           Y           Z
 ---------------------------------------------------------------------
      1          8           0       -4.708079   -0.170649   -0.476542
      2         16           0       -3.350992   -0.474835   -0.027243
      3          7           0       -2.412103    0.815436   -0.596999
      4          6           0       -1.037491    0.898314   -0.349942
      5          7           0       -0.501328    2.075578   -0.091941
      6          8           0        0.870076    1.819623    0.022242
      7          6           0        1.105081    0.495524   -0.147574
      8          6           0        2.488700    0.044586   -0.048823
      9          6           0        3.520778    0.965479    0.190992
     10          6           0        4.839766    0.529219    0.283088
     11          6           0        5.143463   -0.825522    0.137695
     12          6           0        4.120295   -1.746098   -0.101396
     13          6           0        2.800249   -1.316267   -0.194241
     14          6           0       -0.076998   -0.146146   -0.398287
     15          6           0       -3.290643   -0.377156    1.766265
     16          8           0       -2.672457   -1.705290   -0.436035
     17          1           0       -2.908338    1.703882   -0.563656
     18          1           0        3.278315    2.015340    0.301686
     19          1           0        5.631161    1.248152    0.467932
     20          1           0        6.171494   -1.162942    0.209033
     21          1           0        4.350935   -2.799522   -0.214220
     22          1           0        2.009721   -2.034086   -0.379183
     23          1           0       -0.263733   -1.187609   -0.595669
     24          1           0       -3.753799    0.556542    2.085301
     25          1           0       -2.251985   -0.430191    2.090737
     26          1           0       -3.849393   -1.230367    2.152510
 ---------------------------------------------------------------------

 SCF Done:  E(RB3LYP) =  -1120.35996083     A.U. after   11 cycles

 The electronic state is 1-A.
 Alpha  occ. eigenvalues --  -89.13437 -19.24377 -19.16167 -19.16163 -14.39650
 Alpha  occ. eigenvalues --  -14.38635 -10.27992 -10.27300 -10.23512 -10.21917
 Alpha  occ. eigenvalues --  -10.20594 -10.20486 -10.20364 -10.20219 -10.20130
 Alpha  occ. eigenvalues --  -10.20086  -8.15965  -6.12500  -6.12372  -6.12236
 Alpha  occ. eigenvalues --   -1.15018  -1.13163  -1.02144  -0.96924  -0.87852
 Alpha  occ. eigenvalues --   -0.85659  -0.81404  -0.78414  -0.75802  -0.75613
 Alpha  occ. eigenvalues --   -0.67048  -0.64728  -0.62423  -0.60327  -0.59832
 Alpha  occ. eigenvalues --   -0.55299  -0.54324  -0.50621  -0.50446  -0.49229
 Alpha  occ. eigenvalues --   -0.48168  -0.47799  -0.46731  -0.45257  -0.44994
 Alpha  occ. eigenvalues --   -0.44111  -0.43569  -0.42843  -0.40223  -0.38811
 Alpha  occ. eigenvalues --   -0.37330  -0.36491  -0.35536  -0.35416  -0.33607
 Alpha  occ. eigenvalues --   -0.32529  -0.32148  -0.32056  -0.30218  -0.27000
 Alpha  occ. eigenvalues --   -0.26310  -0.23814
 Alpha virt. eigenvalues --   -0.05529  -0.01261   0.01100   0.04485   0.05978
 Alpha virt. eigenvalues --    0.06758   0.08077   0.09104   0.09815   0.10234
 Alpha virt. eigenvalues --    0.11294   0.12550   0.13088   0.14579   0.14889

 Mulliken charges:
               1
     1  O   -0.530627
     2  S    1.176516
     3  N   -0.774847
     4  C    0.481150
     5  N   -0.252053
     6  O   -0.406245
     7  C    0.386999
     8  C    0.080548
     9  C   -0.170577
    10  C   -0.141945
    11  C   -0.127325
    12  C   -0.145563
    13  C   -0.173960
    14  C   -0.282037
    15  C   -0.629394
    16  O   -0.542242
    17  H    0.395821
    18  H    0.163237
    19  H    0.152430
    20  H    0.151619
    21  H    0.152909
    22  H    0.155224
    23  H    0.197120
    24  H    0.224539
    25  H    0.222845
    26  H    0.235857
 Sum of Mulliken charges =   0.00000

 Dipole moment (field-independent basis, Debye):
    X=              3.2371    Y=             -0.4601    Z=              3.7101  Tot=              4.9453
 Quadrupole moment (field-independent basis, Debye-Ang):
   XX=            -93.5368   YY=           -100.2737   ZZ=            -97.0973
   XY=             -9.6461   XZ=            -12.8050   YZ=             -1.9558

 Normal termination of Gaussian 09 at Thu Aug  6 22:08:44 2020.
