 Gaussian 09, Revision D.01,

 -----------------
 #p b3lyp/6-31G(d)
 -----------------

 ----------------
 SM41.n.8.pdb.xyz
 ----------------
 Symbolic Z-matrix:
 Charge =  0 Multiplicity = 1

 SCF Done:  E(RB3LYP) =  -1120.33648553     A.U. after   15 cycles
 Normal termination of Gaussian 09 at Thu Aug  6 21:58:46 2020.
 Gaussian 09:  AM64L-G09RevD.01 24-Apr-2013

 ----------------------------------------------------------------------
 #p b3lyp/6-31G(d) scrf=(iefpcm,read,solvent=Water) geom=allcheck guess
 =read
 ----------------------------------------------------------------------

 Structure from the checkpoint file:  "SM41.n.8.pdb.xyz.mst.n.w.chk"
 ----------------
 SM41.n.8.pdb.xyz
 ----------------
 Charge =  0 Multiplicity = 1

                         Standard orientation:
 ---------------------------------------------------------------------
 Center     Atomic      Atomic             Coordinates (Angstroms)
 Number     Number       Type             X           Y           Z
 ---------------------------------------------------------------------
      1          8           0        2.568321   -1.290524   -1.061835
      2         16           0        3.356309   -0.401632   -0.200921
      3          7           0        2.399270    0.911896    0.260374
      4          6           0        1.012244    0.961214    0.144565
      5          7           0        0.431648    2.146433    0.086823
      6          8           0       -0.945121    1.867082    0.044644
      7          6           0       -1.136305    0.526810    0.070918
      8          6           0       -2.512254    0.043413    0.024462
      9          6           0       -3.585457    0.947075   -0.014181
     10          6           0       -4.895278    0.477957   -0.058361
     11          6           0       -5.149364   -0.895696   -0.064937
     12          6           0       -4.085510   -1.800335   -0.027096
     13          6           0       -2.774172   -1.336834    0.017451
     14          6           0        0.073938   -0.106800    0.137157
     15          6           0        3.679070   -1.239427    1.344061
     16          8           0        4.605593    0.186067   -0.696667
     17          1           0        2.888139    1.801385    0.173097
     18          1           0       -3.384599    2.011538   -0.008186
     19          1           0       -5.717873    1.183886   -0.086849
     20          1           0       -6.170782   -1.259211   -0.099624
     21          1           0       -4.276808   -2.867531   -0.032729
     22          1           0       -1.952288   -2.043208    0.044800
     23          1           0        0.271861   -1.163278    0.159847
     24          1           0        2.730342   -1.558295    1.774442
     25          1           0        4.197274   -0.549629    2.008648
     26          1           0        4.305544   -2.103099    1.117536
 ---------------------------------------------------------------------

 SCF Done:  E(RB3LYP) =  -1120.35658026     A.U. after   12 cycles

 The electronic state is 1-A.
 Alpha  occ. eigenvalues --  -89.13658 -19.24152 -19.16404 -19.16313 -14.39192
 Alpha  occ. eigenvalues --  -14.38311 -10.28149 -10.27137 -10.22812 -10.21734
 Alpha  occ. eigenvalues --  -10.20338 -10.20328 -10.20150 -10.19951 -10.19848
 Alpha  occ. eigenvalues --  -10.19819  -8.16156  -6.12708  -6.12583  -6.12394
 Alpha  occ. eigenvalues --   -1.14662  -1.13168  -1.02140  -0.96588  -0.87640
 Alpha  occ. eigenvalues --   -0.85557  -0.81189  -0.78260  -0.75571  -0.75349
 Alpha  occ. eigenvalues --   -0.67049  -0.64487  -0.62111  -0.60011  -0.59539
 Alpha  occ. eigenvalues --   -0.55112  -0.53779  -0.50425  -0.50291  -0.49126
 Alpha  occ. eigenvalues --   -0.48027  -0.47925  -0.46405  -0.44930  -0.44207
 Alpha  occ. eigenvalues --   -0.43778  -0.43344  -0.42575  -0.40048  -0.38763
 Alpha  occ. eigenvalues --   -0.37548  -0.36224  -0.35974  -0.35114  -0.33751
 Alpha  occ. eigenvalues --   -0.32766  -0.32375  -0.32154  -0.29981  -0.26433
 Alpha  occ. eigenvalues --   -0.26007  -0.23607
 Alpha virt. eigenvalues --   -0.05294  -0.01054   0.02204   0.04220   0.06236
 Alpha virt. eigenvalues --    0.07180   0.07473   0.09166   0.10111   0.10941
 Alpha virt. eigenvalues --    0.11878   0.12808   0.13371   0.14394   0.15331

 Mulliken charges:
               1
     1  O   -0.560540
     2  S    1.198354
     3  N   -0.813101
     4  C    0.535229
     5  N   -0.296403
     6  O   -0.415936
     7  C    0.387856
     8  C    0.080759
     9  C   -0.176739
    10  C   -0.149689
    11  C   -0.134687
    12  C   -0.153120
    13  C   -0.180598
    14  C   -0.283549
    15  C   -0.618132
    16  O   -0.557830
    17  H    0.427493
    18  H    0.165425
    19  H    0.160018
    20  H    0.159135
    21  H    0.160395
    22  H    0.165293
    23  H    0.196666
    24  H    0.230492
    25  H    0.234106
    26  H    0.239101
 Sum of Mulliken charges =   0.00000

 Dipole moment (field-independent basis, Debye):
    X=             -1.9983    Y=             -3.3106    Z=              4.7051  Tot=              6.0903
 Quadrupole moment (field-independent basis, Debye-Ang):
   XX=            -86.2406   YY=            -96.5806   ZZ=           -101.4269
   XY=              1.0342   XZ=             17.3425   YZ=             -5.1102

 Normal termination of Gaussian 09 at Thu Aug  6 22:00:51 2020.
