 Gaussian 09, Revision D.01,

 -----------------
 #p b3lyp/6-31G(d)
 -----------------

 ----------------
 SM41.n.6.pdb.xyz
 ----------------
 Symbolic Z-matrix:
 Charge =  0 Multiplicity = 1

 SCF Done:  E(RB3LYP) =  -1120.33783962     A.U. after   15 cycles
 Normal termination of Gaussian 09 at Thu Aug  6 21:58:48 2020.
 Gaussian 09:  AM64L-G09RevD.01 24-Apr-2013

 ----------------------------------------------------------------------
 #p b3lyp/6-31G(d) scrf=(iefpcm,read,solvent=Water) geom=allcheck guess
 =read
 ----------------------------------------------------------------------

 Structure from the checkpoint file:  "SM41.n.6.pdb.xyz.mst.n.w.chk"
 ----------------
 SM41.n.6.pdb.xyz
 ----------------
 Charge =  0 Multiplicity = 1

                         Standard orientation:
 ---------------------------------------------------------------------
 Center     Atomic      Atomic             Coordinates (Angstroms)
 Number     Number       Type             X           Y           Z
 ---------------------------------------------------------------------
      1          8           0       -4.694338   -0.181182   -0.544577
      2         16           0       -3.351035   -0.470841   -0.034863
      3          7           0       -2.409207    0.834722   -0.553972
      4          6           0       -1.033030    0.908320   -0.317900
      5          7           0       -0.489207    2.088085   -0.079251
      6          8           0        0.885701    1.830308    0.023665
      7          6           0        1.113353    0.502878   -0.136277
      8          6           0        2.496445    0.045804   -0.046725
      9          6           0        3.535857    0.962615    0.177987
     10          6           0        4.852986    0.518858    0.266344
     11          6           0        5.146843   -0.839909    0.129467
     12          6           0        4.116340   -1.756383   -0.094517
     13          6           0        2.797644   -1.318587   -0.182922
     14          6           0       -0.073600   -0.136949   -0.365163
     15          6           0       -3.377308   -0.410650    1.757937
     16          8           0       -2.652000   -1.689754   -0.452578
     17          1           0       -2.902934    1.724897   -0.463174
     18          1           0        3.302910    2.015122    0.282792
     19          1           0        5.648745    1.234420    0.439351
     20          1           0        6.173969   -1.183655    0.198163
     21          1           0        4.339175   -2.811925   -0.200569
     22          1           0        2.000509   -2.033957   -0.355664
     23          1           0       -0.260624   -1.180824   -0.543739
     24          1           0       -3.831188    0.530349    2.068284
     25          1           0       -2.356363   -0.495053    2.128197
     26          1           0       -3.976817   -1.256542    2.095261
 ---------------------------------------------------------------------

 SCF Done:  E(RB3LYP) =  -1120.35861968     A.U. after   12 cycles

 The electronic state is 1-A.
 Alpha  occ. eigenvalues --  -89.13480 -19.24373 -19.16301 -19.16219 -14.39364
 Alpha  occ. eigenvalues --  -14.38657 -10.28053 -10.27253 -10.22898 -10.21770
 Alpha  occ. eigenvalues --  -10.20366 -10.20298 -10.20191 -10.19989 -10.19878
 Alpha  occ. eigenvalues --  -10.19849  -8.16008  -6.12539  -6.12429  -6.12267
 Alpha  occ. eigenvalues --   -1.14898  -1.13143  -1.02095  -0.96710  -0.87693
 Alpha  occ. eigenvalues --   -0.85562  -0.81270  -0.78045  -0.75587  -0.75414
 Alpha  occ. eigenvalues --   -0.66934  -0.64539  -0.62143  -0.59973  -0.59565
 Alpha  occ. eigenvalues --   -0.55097  -0.54043  -0.50555  -0.50218  -0.49089
 Alpha  occ. eigenvalues --   -0.48102  -0.47666  -0.46414  -0.44968  -0.44447
 Alpha  occ. eigenvalues --   -0.43807  -0.43353  -0.42584  -0.40146  -0.38749
 Alpha  occ. eigenvalues --   -0.37299  -0.36235  -0.35715  -0.35162  -0.33734
 Alpha  occ. eigenvalues --   -0.32730  -0.32360  -0.32118  -0.30119  -0.26856
 Alpha  occ. eigenvalues --   -0.26167  -0.23744
 Alpha virt. eigenvalues --   -0.05446  -0.01108   0.01201   0.04664   0.06269
 Alpha virt. eigenvalues --    0.07081   0.08165   0.09445   0.10186   0.10751
 Alpha virt. eigenvalues --    0.11766   0.13268   0.13572   0.15245   0.15409

 Mulliken charges:
               1
     1  O   -0.554684
     2  S    1.173937
     3  N   -0.779872
     4  C    0.496020
     5  N   -0.283806
     6  O   -0.413871
     7  C    0.393325
     8  C    0.079410
     9  C   -0.176030
    10  C   -0.149666
    11  C   -0.134294
    12  C   -0.153262
    13  C   -0.179915
    14  C   -0.281324
    15  C   -0.623497
    16  O   -0.561878
    17  H    0.426682
    18  H    0.166041
    19  H    0.160275
    20  H    0.159459
    21  H    0.160762
    22  H    0.165965
    23  H    0.201273
    24  H    0.234668
    25  H    0.230864
    26  H    0.243422
 Sum of Mulliken charges =   0.00000

 Dipole moment (field-independent basis, Debye):
    X=              3.1050    Y=             -0.5634    Z=              4.3732  Tot=              5.3929
 Quadrupole moment (field-independent basis, Debye-Ang):
   XX=            -92.2429   YY=           -100.6216   ZZ=            -97.0827
   XY=            -10.7385   XZ=            -15.3539   YZ=             -2.1492

 Normal termination of Gaussian 09 at Thu Aug  6 22:00:53 2020.
