 Gaussian 09, Revision D.01,

 -----------------
 #p b3lyp/6-31G(d)
 -----------------

 ----------------
 SM41.n.9.pdb.xyz
 ----------------
 Symbolic Z-matrix:
 Charge =  0 Multiplicity = 1

 SCF Done:  E(RB3LYP) =  -1120.33658246     A.U. after   16 cycles
 Normal termination of Gaussian 09 at Thu Aug  6 22:07:57 2020.
 Gaussian 09:  AM64L-G09RevD.01 24-Apr-2013

 ----------------------------------------------------------------------
 #p b3lyp/6-31G(d) scrf=(iefpcm,read,solvent=n-Octanol) geom=allcheck g
 uess=read
 ----------------------------------------------------------------------

 Structure from the checkpoint file:  "SM41.n.9.pdb.xyz.mst.n.o.chk"
 ----------------
 SM41.n.9.pdb.xyz
 ----------------
 Charge =  0 Multiplicity = 1

                         Standard orientation:
 ---------------------------------------------------------------------
 Center     Atomic      Atomic             Coordinates (Angstroms)
 Number     Number       Type             X           Y           Z
 ---------------------------------------------------------------------
      1          8           0        4.629252    1.162919    0.010704
      2         16           0        3.602360    0.139185    0.225982
      3          7           0        2.203351    0.829586   -0.470922
      4          6           0        0.930597    0.285548   -0.305962
      5          7           0        0.754941   -1.019901   -0.240285
      6          8           0       -0.629048   -1.187846   -0.122968
      7          6           0       -1.238769    0.022090   -0.139259
      8          6           0       -2.693232    0.040436   -0.035018
      9          6           0       -3.411666   -1.158301    0.093005
     10          6           0       -4.800225   -1.134603    0.190174
     11          6           0       -5.486410    0.080807    0.160164
     12          6           0       -4.776175    1.277005    0.032721
     13          6           0       -3.388366    1.260405   -0.064651
     14          6           0       -0.292058    1.002702   -0.251036
     15          6           0        3.874423   -1.267831   -0.845310
     16          8           0        3.333801   -0.351555    1.578783
     17          1           0        2.264166    1.845233   -0.463576
     18          1           0       -2.873868   -2.098010    0.115701
     19          1           0       -5.347108   -2.066583    0.288878
     20          1           0       -6.568051    0.097425    0.235312
     21          1           0       -5.303816    2.223808    0.008802
     22          1           0       -2.840887    2.191702   -0.164831
     23          1           0       -0.434588    2.070823   -0.282914
     24          1           0        4.087006   -0.904457   -1.849345
     25          1           0        2.967341   -1.872027   -0.824832
     26          1           0        4.723252   -1.820352   -0.441568
 ---------------------------------------------------------------------

 SCF Done:  E(RB3LYP) =  -1120.35899706     A.U. after   11 cycles

 The electronic state is 1-A.
 Alpha  occ. eigenvalues --  -89.12909 -19.24365 -19.15694 -19.15644 -14.39305
 Alpha  occ. eigenvalues --  -14.38442 -10.28026 -10.27396 -10.22708 -10.21981
 Alpha  occ. eigenvalues --  -10.20799 -10.20684 -10.20394 -10.20260 -10.20177
 Alpha  occ. eigenvalues --  -10.20117  -8.15463  -6.12012  -6.11862  -6.11717
 Alpha  occ. eigenvalues --   -1.15035  -1.12506  -1.01392  -0.96599  -0.87861
 Alpha  occ. eigenvalues --   -0.85555  -0.81571  -0.78326  -0.75855  -0.75614
 Alpha  occ. eigenvalues --   -0.66534  -0.65395  -0.62543  -0.60701  -0.58092
 Alpha  occ. eigenvalues --   -0.55692  -0.53411  -0.51129  -0.49534  -0.48896
 Alpha  occ. eigenvalues --   -0.48239  -0.47641  -0.47064  -0.45246  -0.44373
 Alpha  occ. eigenvalues --   -0.43723  -0.43555  -0.43121  -0.40019  -0.38991
 Alpha  occ. eigenvalues --   -0.37665  -0.36551  -0.35535  -0.35459  -0.32901
 Alpha  occ. eigenvalues --   -0.32428  -0.31844  -0.31152  -0.30247  -0.26614
 Alpha  occ. eigenvalues --   -0.26203  -0.23831
 Alpha virt. eigenvalues --   -0.05560  -0.01288   0.01459   0.04762   0.06359
 Alpha virt. eigenvalues --    0.06700   0.07871   0.08438   0.09618   0.11046
 Alpha virt. eigenvalues --    0.11411   0.12146   0.12960   0.14707   0.15446

 Mulliken charges:
               1
     1  O   -0.544594
     2  S    1.185303
     3  N   -0.818287
     4  C    0.541644
     5  N   -0.255774
     6  O   -0.409593
     7  C    0.392056
     8  C    0.081426
     9  C   -0.169801
    10  C   -0.141925
    11  C   -0.126976
    12  C   -0.145641
    13  C   -0.173123
    14  C   -0.298891
    15  C   -0.645332
    16  O   -0.523108
    17  H    0.399130
    18  H    0.164068
    19  H    0.152913
    20  H    0.152038
    21  H    0.152798
    22  H    0.153520
    23  H    0.183002
    24  H    0.222499
    25  H    0.246178
    26  H    0.226471
 Sum of Mulliken charges =   0.00000

 Dipole moment (field-independent basis, Debye):
    X=             -4.9353    Y=              1.6338    Z=             -3.1759  Tot=              6.0920
 Quadrupole moment (field-independent basis, Debye-Ang):
   XX=            -93.7112   YY=            -88.9394   ZZ=           -104.7920
   XY=             -9.4207   XZ=            -12.1837   YZ=              0.7374

 Normal termination of Gaussian 09 at Thu Aug  6 22:09:49 2020.
