 Gaussian 09, Revision D.01,

 -----------------
 #p b3lyp/6-31G(d)
 -----------------

 ----------------
 SM41.n.5.pdb.xyz
 ----------------
 Symbolic Z-matrix:
 Charge =  0 Multiplicity = 1

 SCF Done:  E(RB3LYP) =  -1120.33651944     A.U. after   16 cycles
 Normal termination of Gaussian 09 at Thu Aug  6 22:05:56 2020.
 Gaussian 09:  AM64L-G09RevD.01 24-Apr-2013

 ----------------------------------------------------------------------
 #p b3lyp/6-31G(d) scrf=(iefpcm,read,solvent=n-Octanol) geom=allcheck g
 uess=read
 ----------------------------------------------------------------------

 Structure from the checkpoint file:  "SM41.n.5.pdb.xyz.mst.n.o.chk"
 ----------------
 SM41.n.5.pdb.xyz
 ----------------
 Charge =  0 Multiplicity = 1

                         Standard orientation:
 ---------------------------------------------------------------------
 Center     Atomic      Atomic             Coordinates (Angstroms)
 Number     Number       Type             X           Y           Z
 ---------------------------------------------------------------------
      1          8           0       -3.338670   -0.375025    1.571615
      2         16           0       -3.601944    0.137537    0.225648
      3          7           0       -2.201698    0.834028   -0.454073
      4          6           0       -0.929452    0.288160   -0.299319
      5          7           0       -0.756552   -1.019222   -0.238140
      6          8           0        0.628824   -1.189666   -0.125332
      7          6           0        1.239446    0.017556   -0.138955
      8          6           0        2.693413    0.036268   -0.036798
      9          6           0        3.383789    1.257830   -0.069491
     10          6           0        4.771598    1.280070    0.028696
     11          6           0        5.485044    0.085904    0.159525
     12          6           0        4.802623   -1.132241    0.192402
     13          6           0        3.414598   -1.161364    0.095477
     14          6           0        0.296954    1.001825   -0.245996
     15          6           0       -3.876530   -1.251360   -0.866783
     16          8           0       -4.624086    1.167518    0.023070
     17          1           0       -2.264366    1.848920   -0.447962
     18          1           0        2.831957    2.185361   -0.171805
     19          1           0        5.296999    2.228334    0.002788
     20          1           0        6.566937    0.104573    0.235780
     21          1           0        5.352436   -2.060880    0.293881
     22          1           0        2.879133   -2.102235    0.120354
     23          1           0        0.444832    2.068275   -0.273694
     24          1           0       -2.973241   -1.861397   -0.850887
     25          1           0       -4.082057   -0.871352   -1.866454
     26          1           0       -4.731202   -1.802326   -0.474241
 ---------------------------------------------------------------------

 SCF Done:  E(RB3LYP) =  -1120.35904449     A.U. after   11 cycles

 The electronic state is 1-A.
 Alpha  occ. eigenvalues --  -89.12931 -19.24359 -19.15692 -19.15636 -14.39324
 Alpha  occ. eigenvalues --  -14.38446 -10.28074 -10.27372 -10.22716 -10.21962
 Alpha  occ. eigenvalues --  -10.20783 -10.20668 -10.20402 -10.20269 -10.20187
 Alpha  occ. eigenvalues --  -10.20109  -8.15482  -6.12033  -6.11882  -6.11736
 Alpha  occ. eigenvalues --   -1.15032  -1.12548  -1.01411  -0.96651  -0.87866
 Alpha  occ. eigenvalues --   -0.85568  -0.81574  -0.78356  -0.75862  -0.75605
 Alpha  occ. eigenvalues --   -0.66607  -0.65393  -0.62563  -0.60715  -0.58108
 Alpha  occ. eigenvalues --   -0.55712  -0.53450  -0.51129  -0.49553  -0.48922
 Alpha  occ. eigenvalues --   -0.48242  -0.47656  -0.47077  -0.45247  -0.44411
 Alpha  occ. eigenvalues --   -0.43734  -0.43559  -0.43121  -0.40014  -0.39003
 Alpha  occ. eigenvalues --   -0.37673  -0.36554  -0.35547  -0.35465  -0.32914
 Alpha  occ. eigenvalues --   -0.32442  -0.31856  -0.31164  -0.30237  -0.26614
 Alpha  occ. eigenvalues --   -0.26201  -0.23825
 Alpha virt. eigenvalues --   -0.05547  -0.01291   0.01491   0.04775   0.06366
 Alpha virt. eigenvalues --    0.06697   0.07868   0.08441   0.09633   0.11071
 Alpha virt. eigenvalues --    0.11435   0.12163   0.12955   0.14713   0.15430

 Mulliken charges:
               1
     1  O   -0.524057
     2  S    1.185635
     3  N   -0.818990
     4  C    0.541934
     5  N   -0.257201
     6  O   -0.409745
     7  C    0.392493
     8  C    0.081927
     9  C   -0.173046
    10  C   -0.145808
    11  C   -0.127120
    12  C   -0.142000
    13  C   -0.169371
    14  C   -0.298182
    15  C   -0.644845
    16  O   -0.544425
    17  H    0.399736
    18  H    0.153483
    19  H    0.152894
    20  H    0.151993
    21  H    0.152895
    22  H    0.164018
    23  H    0.182926
    24  H    0.245781
    25  H    0.222437
    26  H    0.226637
 Sum of Mulliken charges =   0.00000

 Dipole moment (field-independent basis, Debye):
    X=              4.9307    Y=              1.6984    Z=             -3.2245  Tot=              6.1314
 Quadrupole moment (field-independent basis, Debye-Ang):
   XX=            -93.6352   YY=            -89.0494   ZZ=           -104.6847
   XY=              9.1962   XZ=             12.4405   YZ=              0.8044

 Normal termination of Gaussian 09 at Thu Aug  6 22:07:49 2020.
