 Gaussian 09, Revision D.01,

 -----------------
 #p b3lyp/6-31G(d)
 -----------------

 ----------------
 SM41.n.7.pdb.xyz
 ----------------
 Symbolic Z-matrix:
 Charge =  0 Multiplicity = 1

 SCF Done:  E(RB3LYP) =  -1120.33846330     A.U. after   15 cycles
 Normal termination of Gaussian 09 at Thu Aug  6 22:07:19 2020.
 Gaussian 09:  AM64L-G09RevD.01 24-Apr-2013

 ----------------------------------------------------------------------
 #p b3lyp/6-31G(d) scrf=(iefpcm,read,solvent=n-Octanol) geom=allcheck g
 uess=read
 ----------------------------------------------------------------------

 Structure from the checkpoint file:  "SM41.n.7.pdb.xyz.mst.n.o.chk"
 ----------------
 SM41.n.7.pdb.xyz
 ----------------
 Charge =  0 Multiplicity = 1

                         Standard orientation:
 ---------------------------------------------------------------------
 Center     Atomic      Atomic             Coordinates (Angstroms)
 Number     Number       Type             X           Y           Z
 ---------------------------------------------------------------------
      1          8           0       -4.697603   -0.176772   -0.518141
      2         16           0       -3.349779   -0.476227   -0.039067
      3          7           0       -2.409877    0.832732   -0.555295
      4          6           0       -1.034354    0.910497   -0.322614
      5          7           0       -0.492796    2.089767   -0.085481
      6          8           0        0.880353    1.832138    0.020741
      7          6           0        1.109357    0.505707   -0.133782
      8          6           0        2.491610    0.048286   -0.043880
      9          6           0        2.791286   -1.315553   -0.186942
     10          6           0        4.108711   -1.754777   -0.101663
     11          6           0        5.140102   -0.841093    0.125992
     12          6           0        4.847635    0.516914    0.269174
     13          6           0        3.531308    0.962334    0.185740
     14          6           0       -0.076961   -0.136894   -0.361673
     15          6           0       -3.341614   -0.410972    1.756289
     16          8           0       -2.646445   -1.690327   -0.453723
     17          1           0       -2.906396    1.720294   -0.512405
     18          1           0        1.992651   -2.026957   -0.364716
     19          1           0        4.331827   -2.810394   -0.214168
     20          1           0        6.166284   -1.185303    0.191868
     21          1           0        5.644940    1.229412    0.446773
     22          1           0        3.297786    2.013941    0.295141
     23          1           0       -0.268414   -1.181131   -0.542006
     24          1           0       -3.806090    0.519877    2.079157
     25          1           0       -2.312814   -0.478102    2.108517
     26          1           0       -3.917528   -1.266515    2.111496
 ---------------------------------------------------------------------

 SCF Done:  E(RB3LYP) =  -1120.35989444     A.U. after   11 cycles

 The electronic state is 1-A.
 Alpha  occ. eigenvalues --  -89.13496 -19.24312 -19.16204 -19.16175 -14.39662
 Alpha  occ. eigenvalues --  -14.38530 -10.27984 -10.27248 -10.23513 -10.21891
 Alpha  occ. eigenvalues --  -10.20580 -10.20421 -10.20341 -10.20204 -10.20120
 Alpha  occ. eigenvalues --  -10.20066  -8.16015  -6.12552  -6.12422  -6.12285
 Alpha  occ. eigenvalues --   -1.14919  -1.13211  -1.02189  -0.96951  -0.87827
 Alpha  occ. eigenvalues --   -0.85655  -0.81356  -0.78436  -0.75797  -0.75577
 Alpha  occ. eigenvalues --   -0.67116  -0.64708  -0.62417  -0.60337  -0.59801
 Alpha  occ. eigenvalues --   -0.55277  -0.54349  -0.50672  -0.50427  -0.49194
 Alpha  occ. eigenvalues --   -0.48132  -0.47798  -0.46723  -0.45248  -0.45002
 Alpha  occ. eigenvalues --   -0.44122  -0.43564  -0.42819  -0.40153  -0.38846
 Alpha  occ. eigenvalues --   -0.37365  -0.36478  -0.35589  -0.35408  -0.33635
 Alpha  occ. eigenvalues --   -0.32526  -0.32120  -0.32064  -0.30171  -0.26909
 Alpha  occ. eigenvalues --   -0.26289  -0.23768
 Alpha virt. eigenvalues --   -0.05486  -0.01246   0.01243   0.04461   0.05960
 Alpha virt. eigenvalues --    0.06833   0.08059   0.09089   0.09692   0.10358
 Alpha virt. eigenvalues --    0.11329   0.12581   0.13076   0.14591   0.14849

 Mulliken charges:
               1
     1  O   -0.530095
     2  S    1.176756
     3  N   -0.777863
     4  C    0.487252
     5  N   -0.255255
     6  O   -0.406967
     7  C    0.386075
     8  C    0.081636
     9  C   -0.174030
    10  C   -0.145703
    11  C   -0.127425
    12  C   -0.142032
    13  C   -0.170733
    14  C   -0.283403
    15  C   -0.628193
    16  O   -0.542067
    17  H    0.396443
    18  H    0.155294
    19  H    0.152764
    20  H    0.151463
    21  H    0.152332
    22  H    0.162934
    23  H    0.197925
    24  H    0.224711
    25  H    0.222615
    26  H    0.235564
 Sum of Mulliken charges =   0.00000

 Dipole moment (field-independent basis, Debye):
    X=              3.0268    Y=             -0.5599    Z=              3.8171  Tot=              4.9036
 Quadrupole moment (field-independent basis, Debye-Ang):
   XX=            -92.5922   YY=           -100.2468   ZZ=            -97.2957
   XY=             -9.3816   XZ=            -13.3276   YZ=             -2.0193

 Normal termination of Gaussian 09 at Thu Aug  6 22:09:14 2020.
