 Gaussian 09, Revision D.01,

 -----------------
 #p b3lyp/6-31G(d)
 -----------------

 ----------------
 SM41.n.2.pdb.xyz
 ----------------
 Symbolic Z-matrix:
 Charge =  0 Multiplicity = 1

 SCF Done:  E(RB3LYP) =  -1120.33650383     A.U. after   16 cycles
 Normal termination of Gaussian 09 at Thu Aug  6 22:04:53 2020.
 Gaussian 09:  AM64L-G09RevD.01 24-Apr-2013

 ----------------------------------------------------------------------
 #p b3lyp/6-31G(d) scrf=(iefpcm,read,solvent=n-Octanol) geom=allcheck g
 uess=read
 ----------------------------------------------------------------------

 Structure from the checkpoint file:  "SM41.n.2.pdb.xyz.mst.n.o.chk"
 ----------------
 SM41.n.2.pdb.xyz
 ----------------
 Charge =  0 Multiplicity = 1

                         Standard orientation:
 ---------------------------------------------------------------------
 Center     Atomic      Atomic             Coordinates (Angstroms)
 Number     Number       Type             X           Y           Z
 ---------------------------------------------------------------------
      1          8           0       -3.335293   -0.358598    1.576869
      2         16           0       -3.600251    0.140322    0.225514
      3          7           0       -2.201706    0.829799   -0.462573
      4          6           0       -0.928961    0.284631   -0.304931
      5          7           0       -0.757063   -1.021703   -0.238208
      6          8           0        0.627752   -1.192665   -0.122810
      7          6           0        1.238973    0.014264   -0.140708
      8          6           0        2.692416    0.034496   -0.037149
      9          6           0        3.380847    1.257818   -0.065859
     10          6           0        4.768390    1.281820    0.032309
     11          6           0        5.483968    0.089241    0.161296
     12          6           0        4.804325   -1.129742    0.190986
     13          6           0        3.415971   -1.161044    0.092610
     14          6           0        0.297144    0.998900   -0.253011
     15          6           0       -3.878032   -1.260667   -0.851273
     16          8           0       -4.623172    1.167980    0.015099
     17          1           0       -2.263889    1.844447   -0.468582
     18          1           0        2.827063    2.184688   -0.167161
     19          1           0        5.292107    2.231104    0.009074
     20          1           0        6.565170    0.110463    0.237993
     21          1           0        5.355662   -2.057932    0.290480
     22          1           0        2.882029   -2.103440    0.115799
     23          1           0        0.445028    2.065321   -0.284087
     24          1           0       -2.974910   -1.871071   -0.829404
     25          1           0       -4.084726   -0.890701   -1.854923
     26          1           0       -4.732670   -1.806732   -0.450822
 ---------------------------------------------------------------------

 SCF Done:  E(RB3LYP) =  -1120.35903931     A.U. after   11 cycles

 The electronic state is 1-A.
 Alpha  occ. eigenvalues --  -89.12923 -19.24375 -19.15677 -19.15611 -14.39323
 Alpha  occ. eigenvalues --  -14.38455 -10.28075 -10.27381 -10.22723 -10.21959
 Alpha  occ. eigenvalues --  -10.20793 -10.20673 -10.20407 -10.20256 -10.20180
 Alpha  occ. eigenvalues --  -10.20111  -8.15474  -6.12024  -6.11873  -6.11727
 Alpha  occ. eigenvalues --   -1.15059  -1.12524  -1.01377  -0.96655  -0.87882
 Alpha  occ. eigenvalues --   -0.85593  -0.81588  -0.78342  -0.75862  -0.75616
 Alpha  occ. eigenvalues --   -0.66610  -0.65409  -0.62571  -0.60727  -0.58110
 Alpha  occ. eigenvalues --   -0.55718  -0.53450  -0.51129  -0.49543  -0.48937
 Alpha  occ. eigenvalues --   -0.48248  -0.47648  -0.47077  -0.45251  -0.44406
 Alpha  occ. eigenvalues --   -0.43737  -0.43550  -0.43119  -0.40032  -0.39000
 Alpha  occ. eigenvalues --   -0.37669  -0.36553  -0.35535  -0.35468  -0.32891
 Alpha  occ. eigenvalues --   -0.32430  -0.31865  -0.31141  -0.30252  -0.26620
 Alpha  occ. eigenvalues --   -0.26207  -0.23836
 Alpha virt. eigenvalues --   -0.05552  -0.01295   0.01495   0.04778   0.06355
 Alpha virt. eigenvalues --    0.06728   0.07872   0.08436   0.09627   0.11071
 Alpha virt. eigenvalues --    0.11445   0.12152   0.12963   0.14709   0.15419

 Mulliken charges:
               1
     1  O   -0.524634
     2  S    1.184966
     3  N   -0.818798
     4  C    0.541997
     5  N   -0.256858
     6  O   -0.409745
     7  C    0.392068
     8  C    0.082548
     9  C   -0.173021
    10  C   -0.145793
    11  C   -0.126871
    12  C   -0.142027
    13  C   -0.169828
    14  C   -0.297826
    15  C   -0.644515
    16  O   -0.544519
    17  H    0.399858
    18  H    0.153492
    19  H    0.152836
    20  H    0.151999
    21  H    0.152925
    22  H    0.163917
    23  H    0.183145
    24  H    0.245820
    25  H    0.222274
    26  H    0.226592
 Sum of Mulliken charges =   0.00000

 Dipole moment (field-independent basis, Debye):
    X=              4.9471    Y=              1.6654    Z=             -3.2339  Tot=              6.1405
 Quadrupole moment (field-independent basis, Debye-Ang):
   XX=            -93.6536   YY=            -89.0200   ZZ=           -104.7381
   XY=              9.3206   XZ=             12.3830   YZ=              0.7113

 Normal termination of Gaussian 09 at Thu Aug  6 22:06:46 2020.
