 Gaussian 09, Revision D.01,

 -----------------
 #p b3lyp/6-31G(d)
 -----------------

 ----------------
 SM41.n.3.pdb.xyz
 ----------------
 Symbolic Z-matrix:
 Charge =  0 Multiplicity = 1

 SCF Done:  E(RB3LYP) =  -1120.33256275     A.U. after   16 cycles
 Normal termination of Gaussian 09 at Thu Aug  6 21:58:56 2020.
 Gaussian 09:  AM64L-G09RevD.01 24-Apr-2013

 ----------------------------------------------------------------------
 #p b3lyp/6-31G(d) scrf=(iefpcm,read,solvent=Water) geom=allcheck guess
 =read
 ----------------------------------------------------------------------

 Structure from the checkpoint file:  "SM41.n.3.pdb.xyz.mst.n.w.chk"
 ----------------
 SM41.n.3.pdb.xyz
 ----------------
 Charge =  0 Multiplicity = 1

                         Standard orientation:
 ---------------------------------------------------------------------
 Center     Atomic      Atomic             Coordinates (Angstroms)
 Number     Number       Type             X           Y           Z
 ---------------------------------------------------------------------
      1          8           0       -4.655559    1.131207   -0.070295
      2         16           0       -3.643488    0.069551   -0.063878
      3          7           0       -2.182384    0.897804   -0.258034
      4          6           0       -0.925420    0.303918   -0.190188
      5          7           0       -0.757479   -1.005418   -0.216246
      6          8           0        0.636646   -1.183675   -0.151479
      7          6           0        1.247060    0.024231   -0.090828
      8          6           0        2.702911    0.038967   -0.020614
      9          6           0        3.388887    1.262752    0.063410
     10          6           0        4.778923    1.281716    0.131481
     11          6           0        5.499906    0.084574    0.116360
     12          6           0        4.822965   -1.133899    0.032719
     13          6           0        3.432542   -1.160165   -0.034618
     14          6           0        0.302974    1.012228   -0.110226
     15          6           0       -3.567387   -0.682570    1.560839
     16          8           0       -3.700273   -0.993534   -1.070493
     17          1           0       -2.234585    1.867027    0.053284
     18          1           0        2.832007    2.192471    0.075641
     19          1           0        5.300165    2.230819    0.196051
     20          1           0        6.583235    0.102611    0.168949
     21          1           0        5.377812   -2.066213    0.020863
     22          1           0        2.904195   -2.104127   -0.099476
     23          1           0        0.444391    2.080230   -0.076624
     24          1           0       -3.504775    0.108856    2.306944
     25          1           0       -2.692811   -1.330415    1.596201
     26          1           0       -4.481471   -1.263269    1.688297
 ---------------------------------------------------------------------

 SCF Done:  E(RB3LYP) =  -1120.35758032     A.U. after   12 cycles

 The electronic state is 1-A.
 Alpha  occ. eigenvalues --  -89.13350 -19.24232 -19.16005 -19.15924 -14.39326
 Alpha  occ. eigenvalues --  -14.38498 -10.28251 -10.27280 -10.22583 -10.21785
 Alpha  occ. eigenvalues --  -10.20469 -10.20389 -10.20213 -10.20001 -10.19900
 Alpha  occ. eigenvalues --  -10.19861  -8.15854  -6.12398  -6.12271  -6.12110
 Alpha  occ. eigenvalues --   -1.14741  -1.12867  -1.01743  -0.96695  -0.87719
 Alpha  occ. eigenvalues --   -0.85558  -0.81362  -0.78012  -0.75615  -0.75405
 Alpha  occ. eigenvalues --   -0.67039  -0.65114  -0.62308  -0.60395  -0.57918
 Alpha  occ. eigenvalues --   -0.55418  -0.53793  -0.50821  -0.49960  -0.48788
 Alpha  occ. eigenvalues --   -0.48194  -0.47505  -0.46776  -0.45027  -0.44264
 Alpha  occ. eigenvalues --   -0.43610  -0.43377  -0.42718  -0.39917  -0.38813
 Alpha  occ. eigenvalues --   -0.37389  -0.36495  -0.35716  -0.35162  -0.33556
 Alpha  occ. eigenvalues --   -0.32808  -0.32129  -0.31282  -0.30134  -0.26576
 Alpha  occ. eigenvalues --   -0.26112  -0.23777
 Alpha virt. eigenvalues --   -0.05419  -0.01100   0.01900   0.05033   0.06368
 Alpha virt. eigenvalues --    0.07200   0.07462   0.08580   0.09893   0.11494
 Alpha virt. eigenvalues --    0.11952   0.12300   0.13576   0.15238   0.15662

 Mulliken charges:
               1
     1  O   -0.562685
     2  S    1.193252
     3  N   -0.804607
     4  C    0.539792
     5  N   -0.287310
     6  O   -0.421508
     7  C    0.401744
     8  C    0.078837
     9  C   -0.178250
    10  C   -0.153740
    11  C   -0.133868
    12  C   -0.149662
    13  C   -0.175631
    14  C   -0.297271
    15  C   -0.634817
    16  O   -0.560438
    17  H    0.432401
    18  H    0.165556
    19  H    0.160752
    20  H    0.159712
    21  H    0.160359
    22  H    0.166172
    23  H    0.196926
    24  H    0.230502
    25  H    0.233641
    26  H    0.240141
 Sum of Mulliken charges =   0.00000

 Dipole moment (field-independent basis, Debye):
    X=              6.2451    Y=              4.0906    Z=              5.2531  Tot=              9.1285
 Quadrupole moment (field-independent basis, Debye-Ang):
   XX=           -101.7577   YY=            -91.7457   ZZ=            -99.8053
   XY=              1.8210   XZ=            -17.2632   YZ=             -2.9799

 Normal termination of Gaussian 09 at Thu Aug  6 22:01:01 2020.
