 Gaussian 09, Revision D.01,

 -----------------
 #p b3lyp/6-31G(d)
 -----------------

 ----------------
 SM41.n.7.pdb.xyz
 ----------------
 Symbolic Z-matrix:
 Charge =  0 Multiplicity = 1

 SCF Done:  E(RB3LYP) =  -1120.33782973     A.U. after   15 cycles
 Normal termination of Gaussian 09 at Thu Aug  6 21:58:47 2020.
 Gaussian 09:  AM64L-G09RevD.01 24-Apr-2013

 ----------------------------------------------------------------------
 #p b3lyp/6-31G(d) scrf=(iefpcm,read,solvent=Water) geom=allcheck guess
 =read
 ----------------------------------------------------------------------

 Structure from the checkpoint file:  "SM41.n.7.pdb.xyz.mst.n.w.chk"
 ----------------
 SM41.n.7.pdb.xyz
 ----------------
 Charge =  0 Multiplicity = 1

                         Standard orientation:
 ---------------------------------------------------------------------
 Center     Atomic      Atomic             Coordinates (Angstroms)
 Number     Number       Type             X           Y           Z
 ---------------------------------------------------------------------
      1          8           0       -4.692582   -0.178808   -0.555053
      2         16           0       -3.352057   -0.470339   -0.038850
      3          7           0       -2.406609    0.832640   -0.553944
      4          6           0       -1.030983    0.906816   -0.313214
      5          7           0       -0.489750    2.087131   -0.073303
      6          8           0        0.885710    1.830354    0.032376
      7          6           0        1.115206    0.505069   -0.127818
      8          6           0        2.497694    0.046960   -0.040951
      9          6           0        2.796360   -1.319501   -0.168602
     10          6           0        4.114678   -1.758014   -0.088080
     11          6           0        5.149029   -0.841176    0.121689
     12          6           0        4.857521    0.518542    0.249903
     13          6           0        3.541460    0.963451    0.169293
     14          6           0       -0.070891   -0.137820   -0.357149
     15          6           0       -3.389643   -0.406930    1.753347
     16          8           0       -2.654386   -1.691966   -0.452364
     17          1           0       -2.900309    1.722611   -0.465728
     18          1           0        1.997367   -2.034008   -0.329809
     19          1           0        4.335800   -2.815402   -0.187888
     20          1           0        6.176236   -1.186234    0.184061
     21          1           0        5.656788    1.233596    0.412384
     22          1           0        3.312427    2.017356    0.267590
     23          1           0       -0.255016   -1.182396   -0.536774
     24          1           0       -3.832633    0.539727    2.058861
     25          1           0       -2.372539   -0.505174    2.130926
     26          1           0       -4.003217   -1.244070    2.088539
 ---------------------------------------------------------------------

 SCF Done:  E(RB3LYP) =  -1120.35858798     A.U. after   12 cycles

 The electronic state is 1-A.
 Alpha  occ. eigenvalues --  -89.13490 -19.24392 -19.16309 -19.16211 -14.39378
 Alpha  occ. eigenvalues --  -14.38666 -10.28066 -10.27264 -10.22903 -10.21780
 Alpha  occ. eigenvalues --  -10.20362 -10.20305 -10.20194 -10.19995 -10.19887
 Alpha  occ. eigenvalues --  -10.19843  -8.16018  -6.12549  -6.12439  -6.12277
 Alpha  occ. eigenvalues --   -1.14941  -1.13142  -1.02083  -0.96740  -0.87705
 Alpha  occ. eigenvalues --   -0.85598  -0.81269  -0.78063  -0.75593  -0.75413
 Alpha  occ. eigenvalues --   -0.66967  -0.64556  -0.62138  -0.59987  -0.59573
 Alpha  occ. eigenvalues --   -0.55106  -0.54052  -0.50561  -0.50225  -0.49101
 Alpha  occ. eigenvalues --   -0.48127  -0.47681  -0.46418  -0.44958  -0.44448
 Alpha  occ. eigenvalues --   -0.43825  -0.43353  -0.42596  -0.40139  -0.38756
 Alpha  occ. eigenvalues --   -0.37314  -0.36257  -0.35720  -0.35139  -0.33728
 Alpha  occ. eigenvalues --   -0.32746  -0.32376  -0.32113  -0.30112  -0.26874
 Alpha  occ. eigenvalues --   -0.26184  -0.23739
 Alpha virt. eigenvalues --   -0.05460  -0.01090   0.01212   0.04663   0.06259
 Alpha virt. eigenvalues --    0.07076   0.08120   0.09440   0.10180   0.10745
 Alpha virt. eigenvalues --    0.11764   0.13252   0.13561   0.15233   0.15389

 Mulliken charges:
               1
     1  O   -0.555105
     2  S    1.172542
     3  N   -0.779423
     4  C    0.496143
     5  N   -0.283809
     6  O   -0.413612
     7  C    0.393266
     8  C    0.079093
     9  C   -0.179290
    10  C   -0.153528
    11  C   -0.134294
    12  C   -0.149471
    13  C   -0.175779
    14  C   -0.281116
    15  C   -0.623361
    16  O   -0.561730
    17  H    0.426870
    18  H    0.165922
    19  H    0.160758
    20  H    0.159571
    21  H    0.160231
    22  H    0.165865
    23  H    0.201250
    24  H    0.234416
    25  H    0.230995
    26  H    0.243593
 Sum of Mulliken charges =   0.00000

 Dipole moment (field-independent basis, Debye):
    X=              3.1201    Y=             -0.5536    Z=              4.3647  Tot=              5.3937
 Quadrupole moment (field-independent basis, Debye-Ang):
   XX=            -92.1303   YY=           -100.6183   ZZ=            -97.1536
   XY=            -10.7191   XZ=            -15.4830   YZ=             -2.2417

 Normal termination of Gaussian 09 at Thu Aug  6 22:00:53 2020.
