 Gaussian 09, Revision D.01,

 -----------------
 #p b3lyp/6-31G(d)
 -----------------

 ----------------
 SM41.n.5.pdb.xyz
 ----------------
 Symbolic Z-matrix:
 Charge =  0 Multiplicity = 1

 SCF Done:  E(RB3LYP) =  -1120.33569549     A.U. after   16 cycles
 Normal termination of Gaussian 09 at Thu Aug  6 21:58:56 2020.
 Gaussian 09:  AM64L-G09RevD.01 24-Apr-2013

 ----------------------------------------------------------------------
 #p b3lyp/6-31G(d) scrf=(iefpcm,read,solvent=Water) geom=allcheck guess
 =read
 ----------------------------------------------------------------------

 Structure from the checkpoint file:  "SM41.n.5.pdb.xyz.mst.n.w.chk"
 ----------------
 SM41.n.5.pdb.xyz
 ----------------
 Charge =  0 Multiplicity = 1

                         Standard orientation:
 ---------------------------------------------------------------------
 Center     Atomic      Atomic             Coordinates (Angstroms)
 Number     Number       Type             X           Y           Z
 ---------------------------------------------------------------------
      1          8           0       -3.393490   -0.500509    1.506304
      2         16           0       -3.609831    0.126976    0.196112
      3          7           0       -2.189048    0.852693   -0.375136
      4          6           0       -0.925980    0.289478   -0.226817
      5          7           0       -0.757585   -1.016865   -0.134273
      6          8           0        0.632783   -1.189851   -0.048093
      7          6           0        1.245518    0.017126   -0.102452
      8          6           0        2.702331    0.034827   -0.029292
      9          6           0        3.389800    1.258866   -0.059906
     10          6           0        4.780069    1.281358    0.010110
     11          6           0        5.497536    0.086660    0.110702
     12          6           0        4.818463   -1.133595    0.142412
     13          6           0        3.427840   -1.162631    0.072148
     14          6           0        0.303850    1.000212   -0.215016
     15          6           0       -3.893470   -1.158672   -1.010212
     16          8           0       -4.619574    1.184366    0.071154
     17          1           0       -2.238212    1.869504   -0.317699
     18          1           0        2.835923    2.187058   -0.136941
     19          1           0        5.303106    2.231166   -0.014130
     20          1           0        6.581228    0.106915    0.165549
     21          1           0        5.371697   -2.063322    0.220555
     22          1           0        2.897414   -2.106837    0.096246
     23          1           0        0.447910    2.065883   -0.279034
     24          1           0       -3.014991   -1.803020   -1.022690
     25          1           0       -4.056751   -0.692587   -1.980776
     26          1           0       -4.777083   -1.710999   -0.687988
 ---------------------------------------------------------------------

 SCF Done:  E(RB3LYP) =  -1120.35752989     A.U. after   11 cycles

 The electronic state is 1-A.
 Alpha  occ. eigenvalues --  -89.13277 -19.24293 -19.16040 -19.15943 -14.39186
 Alpha  occ. eigenvalues --  -14.38490 -10.28124 -10.27261 -10.22495 -10.21781
 Alpha  occ. eigenvalues --  -10.20466 -10.20371 -10.20206 -10.19994 -10.19892
 Alpha  occ. eigenvalues --  -10.19861  -8.15811  -6.12357  -6.12225  -6.12057
 Alpha  occ. eigenvalues --   -1.14870  -1.12778  -1.01616  -0.96652  -0.87704
 Alpha  occ. eigenvalues --   -0.85519  -0.81408  -0.78256  -0.75607  -0.75388
 Alpha  occ. eigenvalues --   -0.66785  -0.65152  -0.62318  -0.60427  -0.57925
 Alpha  occ. eigenvalues --   -0.55442  -0.53414  -0.50882  -0.49750  -0.48712
 Alpha  occ. eigenvalues --   -0.48234  -0.47685  -0.46788  -0.44996  -0.44083
 Alpha  occ. eigenvalues --   -0.43546  -0.43430  -0.42770  -0.39921  -0.39062
 Alpha  occ. eigenvalues --   -0.37672  -0.36370  -0.35781  -0.35182  -0.33267
 Alpha  occ. eigenvalues --   -0.32780  -0.32121  -0.31492  -0.30122  -0.26479
 Alpha  occ. eigenvalues --   -0.26056  -0.23758
 Alpha virt. eigenvalues --   -0.05401  -0.01107   0.01768   0.04964   0.06631
 Alpha virt. eigenvalues --    0.06812   0.07755   0.08593   0.09925   0.11486
 Alpha virt. eigenvalues --    0.11728   0.12689   0.13455   0.15208   0.15825

 Mulliken charges:
               1
     1  O   -0.554356
     2  S    1.193593
     3  N   -0.817783
     4  C    0.546755
     5  N   -0.287649
     6  O   -0.419355
     7  C    0.399517
     8  C    0.079779
     9  C   -0.178802
    10  C   -0.153541
    11  C   -0.134112
    12  C   -0.149734
    13  C   -0.175815
    14  C   -0.296460
    15  C   -0.636566
    16  O   -0.564293
    17  H    0.431312
    18  H    0.165669
    19  H    0.160734
    20  H    0.159478
    21  H    0.160429
    22  H    0.166140
    23  H    0.197007
    24  H    0.238631
    25  H    0.231890
    26  H    0.237531
 Sum of Mulliken charges =   0.00000

 Dipole moment (field-independent basis, Debye):
    X=              5.1973    Y=              2.5325    Z=             -3.9553  Tot=              7.0050
 Quadrupole moment (field-independent basis, Debye-Ang):
   XX=            -93.9090   YY=            -88.8848   ZZ=           -104.1560
   XY=              8.6200   XZ=             14.7764   YZ=              1.8928

 Normal termination of Gaussian 09 at Thu Aug  6 22:00:52 2020.
