 Gaussian 09, Revision D.01,

 -----------------
 #p b3lyp/6-31G(d)
 -----------------

 ----------------
 SM41.n.4.pdb.xyz
 ----------------
 Symbolic Z-matrix:
 Charge =  0 Multiplicity = 1

 SCF Done:  E(RB3LYP) =  -1120.33660594     A.U. after   16 cycles
 Normal termination of Gaussian 09 at Thu Aug  6 22:04:53 2020.
 Gaussian 09:  AM64L-G09RevD.01 24-Apr-2013

 ----------------------------------------------------------------------
 #p b3lyp/6-31G(d) scrf=(iefpcm,read,solvent=n-Octanol) geom=allcheck g
 uess=read
 ----------------------------------------------------------------------

 Structure from the checkpoint file:  "SM41.n.4.pdb.xyz.mst.n.o.chk"
 ----------------
 SM41.n.4.pdb.xyz
 ----------------
 Charge =  0 Multiplicity = 1

                         Standard orientation:
 ---------------------------------------------------------------------
 Center     Atomic      Atomic             Coordinates (Angstroms)
 Number     Number       Type             X           Y           Z
 ---------------------------------------------------------------------
      1          8           0        4.620686    1.170254    0.024498
      2         16           0        3.593954    0.146213    0.236195
      3          7           0        2.205713    0.819219   -0.498285
      4          6           0        0.932483    0.275526   -0.333554
      5          7           0        0.758201   -1.030254   -0.268586
      6          8           0       -0.626257   -1.199996   -0.143487
      7          6           0       -1.236041    0.009443   -0.156760
      8          6           0       -2.690220    0.032870   -0.041482
      9          6           0       -3.374726    1.257769   -0.069401
     10          6           0       -4.761510    1.286252    0.040363
     11          6           0       -5.479161    0.096610    0.179715
     12          6           0       -4.803191   -1.125110    0.207772
     13          6           0       -3.415732   -1.160610    0.098557
     14          6           0       -0.291583    0.991822   -0.273504
     15          6           0        3.891205   -1.276729   -0.807372
     16          8           0        3.300039   -0.324395    1.591203
     17          1           0        2.263158    1.834626   -0.506361
     18          1           0       -2.819261    2.182067   -0.178656
     19          1           0       -5.282040    2.237877    0.017250
     20          1           0       -6.560359    0.120683    0.265281
     21          1           0       -5.356438   -2.050968    0.316221
     22          1           0       -2.885608   -2.105949    0.121010
     23          1           0       -0.435718    2.058194   -0.302028
     24          1           0        4.121826   -0.928948   -1.813510
     25          1           0        2.984960   -1.883998   -0.795306
     26          1           0        4.733927   -1.819701   -0.378640
 ---------------------------------------------------------------------

 SCF Done:  E(RB3LYP) =  -1120.35898763     A.U. after   11 cycles

 The electronic state is 1-A.
 Alpha  occ. eigenvalues --  -89.12899 -19.24383 -19.15705 -19.15644 -14.39294
 Alpha  occ. eigenvalues --  -14.38464 -10.28028 -10.27400 -10.22715 -10.21979
 Alpha  occ. eigenvalues --  -10.20788 -10.20666 -10.20421 -10.20264 -10.20185
 Alpha  occ. eigenvalues --  -10.20117  -8.15456  -6.12004  -6.11855  -6.11710
 Alpha  occ. eigenvalues --   -1.15004  -1.12512  -1.01401  -0.96605  -0.87861
 Alpha  occ. eigenvalues --   -0.85571  -0.81561  -0.78313  -0.75862  -0.75608
 Alpha  occ. eigenvalues --   -0.66502  -0.65382  -0.62550  -0.60710  -0.58084
 Alpha  occ. eigenvalues --   -0.55697  -0.53420  -0.51122  -0.49525  -0.48921
 Alpha  occ. eigenvalues --   -0.48218  -0.47630  -0.47075  -0.45254  -0.44368
 Alpha  occ. eigenvalues --   -0.43727  -0.43541  -0.43128  -0.40039  -0.38961
 Alpha  occ. eigenvalues --   -0.37657  -0.36519  -0.35544  -0.35485  -0.32899
 Alpha  occ. eigenvalues --   -0.32439  -0.31861  -0.31156  -0.30242  -0.26633
 Alpha  occ. eigenvalues --   -0.26225  -0.23838
 Alpha virt. eigenvalues --   -0.05557  -0.01301   0.01394   0.04796   0.06306
 Alpha virt. eigenvalues --    0.06669   0.07896   0.08470   0.09600   0.11058
 Alpha virt. eigenvalues --    0.11404   0.12124   0.12969   0.14699   0.15433

 Mulliken charges:
               1
     1  O   -0.544225
     2  S    1.184645
     3  N   -0.817479
     4  C    0.539484
     5  N   -0.255130
     6  O   -0.409628
     7  C    0.390667
     8  C    0.082964
     9  C   -0.173028
    10  C   -0.145670
    11  C   -0.127054
    12  C   -0.141938
    13  C   -0.170052
    14  C   -0.297446
    15  C   -0.644879
    16  O   -0.523417
    17  H    0.398965
    18  H    0.153598
    19  H    0.152871
    20  H    0.151960
    21  H    0.153034
    22  H    0.163903
    23  H    0.183004
    24  H    0.222407
    25  H    0.246167
    26  H    0.226278
 Sum of Mulliken charges =   0.00000

 Dipole moment (field-independent basis, Debye):
    X=             -4.8753    Y=              1.5829    Z=             -3.1511  Tot=              6.0169
 Quadrupole moment (field-independent basis, Debye-Ang):
   XX=            -93.1873   YY=            -88.9989   ZZ=           -104.9123
   XY=             -9.6511   XZ=            -12.1509   YZ=              0.3672

 Normal termination of Gaussian 09 at Thu Aug  6 22:06:46 2020.
