 Gaussian 09, Revision D.01,

 -----------------
 #p b3lyp/6-31G(d)
 -----------------

 ----------------
 SM41.n.2.pdb.xyz
 ----------------
 Symbolic Z-matrix:
 Charge =  0 Multiplicity = 1

 SCF Done:  E(RB3LYP) =  -1120.33572619     A.U. after   16 cycles
 Normal termination of Gaussian 09 at Thu Aug  6 21:58:56 2020.
 Gaussian 09:  AM64L-G09RevD.01 24-Apr-2013

 ----------------------------------------------------------------------
 #p b3lyp/6-31G(d) scrf=(iefpcm,read,solvent=Water) geom=allcheck guess
 =read
 ----------------------------------------------------------------------

 Structure from the checkpoint file:  "SM41.n.2.pdb.xyz.mst.n.w.chk"
 ----------------
 SM41.n.2.pdb.xyz
 ----------------
 Charge =  0 Multiplicity = 1

                         Standard orientation:
 ---------------------------------------------------------------------
 Center     Atomic      Atomic             Coordinates (Angstroms)
 Number     Number       Type             X           Y           Z
 ---------------------------------------------------------------------
      1          8           0       -3.386913   -0.525216    1.498526
      2         16           0       -3.609030    0.124346    0.200147
      3          7           0       -2.190392    0.857214   -0.367056
      4          6           0       -0.925803    0.293214   -0.225899
      5          7           0       -0.757296   -1.014878   -0.157223
      6          8           0        0.633188   -1.188956   -0.071523
      7          6           0        1.246061    0.019860   -0.103017
      8          6           0        2.701404    0.036475   -0.027865
      9          6           0        3.392978    1.258742   -0.072400
     10          6           0        4.783052    1.277944   -0.001626
     11          6           0        5.498342    0.082739    0.114233
     12          6           0        4.815102   -1.135122    0.157712
     13          6           0        3.424579   -1.161289    0.087470
     14          6           0        0.302409    1.004245   -0.198335
     15          6           0       -3.899942   -1.141538   -1.025900
     16          8           0       -4.618480    1.183978    0.096439
     17          1           0       -2.239244    1.873406   -0.295411
     18          1           0        2.842024    2.186854   -0.162873
     19          1           0        5.308451    2.226530   -0.036687
     20          1           0        6.581327    0.100830    0.168490
     21          1           0        5.366123   -2.064862    0.247599
     22          1           0        2.892360   -2.104911    0.121613
     23          1           0        0.445000    2.071737   -0.238802
     24          1           0       -3.021033   -1.786200   -1.052501
     25          1           0       -4.066788   -0.659257   -1.988267
     26          1           0       -4.781394   -1.700081   -0.709339
 ---------------------------------------------------------------------

 SCF Done:  E(RB3LYP) =  -1120.35753737     A.U. after   11 cycles

 The electronic state is 1-A.
 Alpha  occ. eigenvalues --  -89.13271 -19.24297 -19.16042 -19.15945 -14.39185
 Alpha  occ. eigenvalues --  -14.38500 -10.28120 -10.27277 -10.22493 -10.21787
 Alpha  occ. eigenvalues --  -10.20485 -10.20378 -10.20214 -10.19999 -10.19900
 Alpha  occ. eigenvalues --  -10.19861  -8.15805  -6.12351  -6.12220  -6.12051
 Alpha  occ. eigenvalues --   -1.14839  -1.12780  -1.01626  -0.96631  -0.87701
 Alpha  occ. eigenvalues --   -0.85509  -0.81408  -0.78229  -0.75605  -0.75389
 Alpha  occ. eigenvalues --   -0.66767  -0.65160  -0.62316  -0.60418  -0.57913
 Alpha  occ. eigenvalues --   -0.55431  -0.53406  -0.50894  -0.49753  -0.48702
 Alpha  occ. eigenvalues --   -0.48221  -0.47666  -0.46801  -0.44987  -0.44066
 Alpha  occ. eigenvalues --   -0.43541  -0.43425  -0.42785  -0.39918  -0.39046
 Alpha  occ. eigenvalues --   -0.37668  -0.36376  -0.35797  -0.35169  -0.33269
 Alpha  occ. eigenvalues --   -0.32775  -0.32126  -0.31497  -0.30128  -0.26491
 Alpha  occ. eigenvalues --   -0.26066  -0.23745
 Alpha virt. eigenvalues --   -0.05439  -0.01103   0.01756   0.04960   0.06629
 Alpha virt. eigenvalues --    0.06814   0.07775   0.08584   0.09924   0.11477
 Alpha virt. eigenvalues --    0.11719   0.12689   0.13457   0.15198   0.15827

 Mulliken charges:
               1
     1  O   -0.554383
     2  S    1.193721
     3  N   -0.817612
     4  C    0.546242
     5  N   -0.287121
     6  O   -0.419527
     7  C    0.399251
     8  C    0.079156
     9  C   -0.178292
    10  C   -0.153747
    11  C   -0.133887
    12  C   -0.149796
    13  C   -0.175737
    14  C   -0.296190
    15  C   -0.636311
    16  O   -0.564176
    17  H    0.431192
    18  H    0.165702
    19  H    0.160684
    20  H    0.159685
    21  H    0.160380
    22  H    0.166265
    23  H    0.197141
    24  H    0.238267
    25  H    0.231714
    26  H    0.237380
 Sum of Mulliken charges =   0.00000

 Dipole moment (field-independent basis, Debye):
    X=              5.1939    Y=              2.6015    Z=             -3.9048  Tot=              6.9994
 Quadrupole moment (field-independent basis, Debye-Ang):
   XX=            -93.7317   YY=            -88.9852   ZZ=           -104.0903
   XY=              8.3923   XZ=             14.9154   YZ=              1.8388

 Normal termination of Gaussian 09 at Thu Aug  6 22:00:52 2020.
