 Gaussian 09, Revision D.01,

 -----------------
 #p b3lyp/6-31G(d)
 -----------------

 ----------------
 SM42.n.1.pdb.xyz
 ----------------
 Symbolic Z-matrix:
 Charge =  0 Multiplicity = 1

 SCF Done:  E(RB3LYP) =  -1312.06694659     A.U. after   16 cycles
 Normal termination of Gaussian 09 at Thu Aug  6 22:12:04 2020.
 Gaussian 09:  AM64L-G09RevD.01 24-Apr-2013

 ----------------------------------------------------------------------
 #p b3lyp/6-31G(d) scrf=(iefpcm,read,solvent=n-Octanol) geom=allcheck g
 uess=read
 ----------------------------------------------------------------------

 Structure from the checkpoint file:  "SM42.n.1.pdb.xyz.mst.n.o.chk"
 ----------------
 SM42.n.1.pdb.xyz
 ----------------
 Charge =  0 Multiplicity = 1

                         Standard orientation:
 ---------------------------------------------------------------------
 Center     Atomic      Atomic             Coordinates (Angstroms)
 Number     Number       Type             X           Y           Z
 ---------------------------------------------------------------------
      1          8           0        3.450544   -2.289847    0.490022
      2         16           0        2.606213   -1.398100   -0.307822
      3          7           0        1.072590   -1.617951    0.381897
      4          6           0       -0.098940   -0.970060    0.009970
      5          7           0       -0.172409   -0.184560   -1.046932
      6          8           0       -1.507810    0.240534   -1.078833
      7          6           0       -2.185776   -0.301317   -0.041138
      8          6           0       -3.600909    0.033121    0.081277
      9          6           0       -4.366011   -0.502327    1.129566
     10          6           0       -5.714561   -0.182262    1.245266
     11          6           0       -6.315018    0.672450    0.317577
     12          6           0       -5.559575    1.207290   -0.727201
     13          6           0       -4.209111    0.891197   -0.848055
     14          6           0       -1.340049   -1.083889    0.694280
     15          6           0        3.101322    0.284614    0.033315
     16          6           0        3.996525    0.502474    1.082123
     17          6           0        4.407434    1.807121    1.351707
     18          6           0        3.922686    2.865717    0.582021
     19          6           0        3.027198    2.629418   -0.463640
     20          6           0        2.609570    1.331124   -0.750615
     21          8           0        2.471400   -1.566293   -1.751672
     22          1           0        1.119753   -1.974756    1.331548
     23          1           0       -3.903048   -1.167454    1.851328
     24          1           0       -6.298259   -0.600533    2.057548
     25          1           0       -7.366953    0.919823    0.409059
     26          1           0       -6.020940    1.871804   -1.449230
     27          1           0       -3.615675    1.301936   -1.655927
     28          1           0       -1.557178   -1.659536    1.578701
     29          1           0        4.365246   -0.340043    1.653708
     30          1           0        5.107885    1.993024    2.157622
     31          1           0        4.245784    3.878852    0.795934
     32          1           0        2.656266    3.455390   -1.059274
     33          1           0        1.904654    1.125488   -1.545455
 ---------------------------------------------------------------------

 SCF Done:  E(RB3LYP) =  -1312.09460610     A.U. after   11 cycles

 The electronic state is 1-A.
 Alpha  occ. eigenvalues --  -89.13120 -19.24098 -19.15765 -19.15735 -14.39462
 Alpha  occ. eigenvalues --  -14.38213 -10.28085 -10.27241 -10.23462 -10.21913
 Alpha  occ. eigenvalues --  -10.21556 -10.21303 -10.20996 -10.20803 -10.20741
 Alpha  occ. eigenvalues --  -10.20672 -10.20630 -10.20342 -10.20217 -10.20140
 Alpha  occ. eigenvalues --  -10.20071  -8.15560  -6.12110  -6.11977  -6.11832
 Alpha  occ. eigenvalues --   -1.14795  -1.12766  -1.01767  -0.96594  -0.87885
 Alpha  occ. eigenvalues --   -0.87737  -0.85501  -0.81377  -0.78290  -0.76598
 Alpha  occ. eigenvalues --   -0.75819  -0.75601  -0.69444  -0.65261  -0.64006
 Alpha  occ. eigenvalues --   -0.62586  -0.61820  -0.60561  -0.58025  -0.55614
 Alpha  occ. eigenvalues --   -0.55395  -0.52542  -0.50700  -0.49208  -0.49026
 Alpha  occ. eigenvalues --   -0.48118  -0.47599  -0.46940  -0.45889  -0.45422
 Alpha  occ. eigenvalues --   -0.44955  -0.44108  -0.43661  -0.43040  -0.39945
 Alpha  occ. eigenvalues --   -0.39694  -0.38819  -0.38291  -0.37094  -0.36632
 Alpha  occ. eigenvalues --   -0.36442  -0.35498  -0.35411  -0.33302  -0.32444
 Alpha  occ. eigenvalues --   -0.32019  -0.30972  -0.30147  -0.28007  -0.26965
 Alpha  occ. eigenvalues --   -0.26438  -0.25735  -0.23736
 Alpha virt. eigenvalues --   -0.05433  -0.04129  -0.01879  -0.01236   0.02352
 Alpha virt. eigenvalues --    0.04616   0.06728   0.07112   0.07759   0.08426
 Alpha virt. eigenvalues --    0.09540   0.10956   0.11313   0.12687   0.13208

 Mulliken charges:
               1
     1  O   -0.552264
     2  S    1.218413
     3  N   -0.805823
     4  C    0.552059
     5  N   -0.256124
     6  O   -0.412613
     7  C    0.397059
     8  C    0.080161
     9  C   -0.173174
    10  C   -0.145819
    11  C   -0.127506
    12  C   -0.141778
    13  C   -0.170178
    14  C   -0.307390
    15  C   -0.166921
    16  C   -0.144415
    17  C   -0.134285
    18  C   -0.122203
    19  C   -0.138365
    20  C   -0.130881
    21  O   -0.535757
    22  H    0.398635
    23  H    0.152959
    24  H    0.152455
    25  H    0.151393
    26  H    0.152528
    27  H    0.164072
    28  H    0.181906
    29  H    0.184042
    30  H    0.160575
    31  H    0.159892
    32  H    0.160869
    33  H    0.198476
 Sum of Mulliken charges =   0.00000

 Dipole moment (field-independent basis, Debye):
    X=             -4.2732    Y=              3.9174    Z=              5.8430  Tot=              8.2308
 Quadrupole moment (field-independent basis, Debye-Ang):
   XX=           -107.2702   YY=           -123.2523   ZZ=           -124.1767
   XY=             17.4936   XZ=              6.5013   YZ=            -10.2876

 Normal termination of Gaussian 09 at Thu Aug  6 22:15:39 2020.
