 Gaussian 09, Revision D.01,

 -----------------
 #p b3lyp/6-31G(d)
 -----------------

 ----------------
 SM42.n.1.pdb.xyz
 ----------------
 Symbolic Z-matrix:
 Charge =  0 Multiplicity = 1

 SCF Done:  E(RB3LYP) =  -1312.06544107     A.U. after   16 cycles
 Normal termination of Gaussian 09 at Thu Aug  6 22:01:18 2020.
 Gaussian 09:  AM64L-G09RevD.01 24-Apr-2013

 ----------------------------------------------------------------------
 #p b3lyp/6-31G(d) scrf=(iefpcm,read,solvent=Water) geom=allcheck guess
 =read
 ----------------------------------------------------------------------

 Structure from the checkpoint file:  "SM42.n.1.pdb.xyz.mst.n.w.chk"
 ----------------
 SM42.n.1.pdb.xyz
 ----------------
 Charge =  0 Multiplicity = 1

                         Standard orientation:
 ---------------------------------------------------------------------
 Center     Atomic      Atomic             Coordinates (Angstroms)
 Number     Number       Type             X           Y           Z
 ---------------------------------------------------------------------
      1          8           0        3.577630   -2.134581    0.729113
      2         16           0        2.688881   -1.378064   -0.158636
      3          7           0        1.149914   -1.704373    0.463567
      4          6           0       -0.025812   -1.105617    0.019772
      5          7           0       -0.134885   -0.550743   -1.173154
      6          8           0       -1.464509   -0.099370   -1.230631
      7          6           0       -2.101443   -0.405925   -0.075914
      8          6           0       -3.501341   -0.016101    0.043706
      9          6           0       -4.226264   -0.341165    1.202593
     10          6           0       -5.563163    0.031245    1.318104
     11          6           0       -6.191171    0.728499    0.282468
     12          6           0       -5.474627    1.053054   -0.871570
     13          6           0       -4.137384    0.684986   -0.993866
     14          6           0       -1.234117   -1.047299    0.762978
     15          6           0        3.000925    0.364373    0.059302
     16          6           0        3.414172    0.822387    1.313173
     17          6           0        3.652785    2.184348    1.481409
     18          6           0        3.479497    3.065056    0.409270
     19          6           0        3.069061    2.589399   -0.837472
     20          6           0        2.824419    1.228598   -1.021780
     21          8           0        2.656490   -1.666488   -1.595027
     22          1           0        1.179173   -1.911905    1.462009
     23          1           0       -3.743587   -0.884321    2.006957
     24          1           0       -6.114313   -0.225076    2.216167
     25          1           0       -7.232314    1.015967    0.374726
     26          1           0       -5.957447    1.594829   -1.678594
     27          1           0       -3.578256    0.936628   -1.887295
     28          1           0       -1.410663   -1.421412    1.757407
     29          1           0        3.557266    0.127242    2.131537
     30          1           0        3.978700    2.556701    2.445651
     31          1           0        3.668164    4.123796    0.546598
     32          1           0        2.942033    3.274348   -1.668323
     33          1           0        2.513822    0.836521   -1.982241
 ---------------------------------------------------------------------

 SCF Done:  E(RB3LYP) =  -1312.08929598     A.U. after   11 cycles

 The electronic state is 1-A.
 Alpha  occ. eigenvalues --  -89.13554 -19.24222 -19.16288 -19.16277 -14.39481
 Alpha  occ. eigenvalues --  -14.38446 -10.28117 -10.27222 -10.23679 -10.21778
 Alpha  occ. eigenvalues --  -10.21718 -10.21579 -10.20916 -10.20744 -10.20690
 Alpha  occ. eigenvalues --  -10.20438 -10.20382 -10.20200 -10.19985 -10.19893
 Alpha  occ. eigenvalues --  -10.19854  -8.16018  -6.12548  -6.12445  -6.12290
 Alpha  occ. eigenvalues --   -1.14788  -1.13158  -1.02132  -0.96738  -0.87970
 Alpha  occ. eigenvalues --   -0.87651  -0.85510  -0.81294  -0.78392  -0.76644
 Alpha  occ. eigenvalues --   -0.75591  -0.75438  -0.69598  -0.65116  -0.63992
 Alpha  occ. eigenvalues --   -0.62570  -0.61732  -0.60335  -0.57940  -0.55420
 Alpha  occ. eigenvalues --   -0.55263  -0.52606  -0.50633  -0.49478  -0.48830
 Alpha  occ. eigenvalues --   -0.48160  -0.47785  -0.46706  -0.45880  -0.45579
 Alpha  occ. eigenvalues --   -0.44917  -0.44097  -0.43446  -0.42774  -0.39909
 Alpha  occ. eigenvalues --   -0.39847  -0.38778  -0.38199  -0.37259  -0.36577
 Alpha  occ. eigenvalues --   -0.36422  -0.35775  -0.35152  -0.33895  -0.33115
 Alpha  occ. eigenvalues --   -0.32442  -0.31303  -0.30116  -0.28092  -0.27086
 Alpha  occ. eigenvalues --   -0.26341  -0.25926  -0.23729
 Alpha virt. eigenvalues --   -0.05510  -0.04307  -0.01921  -0.01093   0.01952
 Alpha virt. eigenvalues --    0.04962   0.06453   0.07487   0.08162   0.08445
 Alpha virt. eigenvalues --    0.09776   0.10926   0.11442   0.12967   0.13129

 Mulliken charges:
               1
     1  O   -0.569509
     2  S    1.216750
     3  N   -0.797900
     4  C    0.534687
     5  N   -0.280026
     6  O   -0.420781
     7  C    0.402320
     8  C    0.078135
     9  C   -0.178605
    10  C   -0.153862
    11  C   -0.133805
    12  C   -0.149991
    13  C   -0.175423
    14  C   -0.301532
    15  C   -0.152963
    16  C   -0.142858
    17  C   -0.139133
    18  C   -0.124787
    19  C   -0.139767
    20  C   -0.131587
    21  O   -0.566480
    22  H    0.430642
    23  H    0.165512
    24  H    0.160613
    25  H    0.159584
    26  H    0.160213
    27  H    0.166170
    28  H    0.196769
    29  H    0.186851
    30  H    0.171587
    31  H    0.170653
    32  H    0.171276
    33  H    0.187249
 Sum of Mulliken charges =   0.00000

 Dipole moment (field-independent basis, Debye):
    X=             -5.0396    Y=              5.3976    Z=              6.7350  Tot=              9.9946
 Quadrupole moment (field-independent basis, Debye-Ang):
   XX=           -114.3379   YY=           -123.8488   ZZ=           -118.9353
   XY=             20.3861   XZ=              3.9906   YZ=            -10.3964

 Normal termination of Gaussian 09 at Thu Aug  6 22:04:48 2020.
