 Gaussian 09, Revision D.01,

 -----------------
 #p b3lyp/6-31G(d)
 -----------------

 ----------------
 SM42.n.6.pdb.xyz
 ----------------
 Symbolic Z-matrix:
 Charge =  0 Multiplicity = 1

 SCF Done:  E(RB3LYP) =  -1312.07177901     A.U. after   16 cycles
 Normal termination of Gaussian 09 at Thu Aug  6 22:01:32 2020.
 Gaussian 09:  AM64L-G09RevD.01 24-Apr-2013

 ----------------------------------------------------------------------
 #p b3lyp/6-31G(d) scrf=(iefpcm,read,solvent=Water) geom=allcheck guess
 =read
 ----------------------------------------------------------------------

 Structure from the checkpoint file:  "SM42.n.6.pdb.xyz.mst.n.w.chk"
 ----------------
 SM42.n.6.pdb.xyz
 ----------------
 Charge =  0 Multiplicity = 1

                         Standard orientation:
 ---------------------------------------------------------------------
 Center     Atomic      Atomic             Coordinates (Angstroms)
 Number     Number       Type             X           Y           Z
 ---------------------------------------------------------------------
      1          8           0        3.554348   -2.150731   -0.484587
      2         16           0        2.387294   -1.276653   -0.632339
      3          7           0        1.328587   -1.801157    0.579368
      4          6           0        0.057151   -1.244522    0.748041
      5          7           0       -0.400104   -1.060003    1.973288
      6          8           0       -1.709120   -0.590192    1.796547
      7          6           0       -1.982032   -0.489050    0.471930
      8          6           0       -3.305069   -0.004515    0.096275
      9          6           0       -3.649767    0.124046   -1.259660
     10          6           0       -4.912842    0.585707   -1.619246
     11          6           0       -5.845264    0.923116   -0.633672
     12          6           0       -5.507090    0.796923    0.715569
     13          6           0       -4.245445    0.336164    1.081646
     14          6           0       -0.892968   -0.898976   -0.247578
     15          6           0        2.873619    0.396760   -0.256568
     16          6           0        3.916877    0.611526    0.647809
     17          6           0        4.277506    1.921850    0.951629
     18          6           0        3.602447    2.991615    0.358171
     19          6           0        2.564793    2.759598   -0.546118
     20          6           0        2.190616    1.453797   -0.862021
     21          8           0        1.613337   -1.263946   -1.877660
     22          1           0        1.821816   -1.983435    1.456505
     23          1           0       -2.930397   -0.136711   -2.026898
     24          1           0       -5.169936    0.681849   -2.668423
     25          1           0       -6.828226    1.282478   -0.916922
     26          1           0       -6.226959    1.057467    1.484113
     27          1           0       -3.980047    0.236502    2.128057
     28          1           0       -0.767682   -0.960678   -1.314500
     29          1           0        4.438113   -0.227358    1.090912
     30          1           0        5.087819    2.106616    1.647465
     31          1           0        3.889429    4.010062    0.599304
     32          1           0        2.048173    3.591459   -1.012338
     33          1           0        1.398114    1.251045   -1.570076
 ---------------------------------------------------------------------

 SCF Done:  E(RB3LYP) =  -1312.09079613     A.U. after   11 cycles

 The electronic state is 1-A.
 Alpha  occ. eigenvalues --  -89.13626 -19.24452 -19.16590 -19.16502 -14.39518
 Alpha  occ. eigenvalues --  -14.38776 -10.28043 -10.27292 -10.23845 -10.21794
 Alpha  occ. eigenvalues --  -10.21790 -10.21772 -10.21003 -10.20840 -10.20831
 Alpha  occ. eigenvalues --  -10.20382 -10.20364 -10.20213 -10.19999 -10.19898
 Alpha  occ. eigenvalues --  -10.19859  -8.16120  -6.12638  -6.12552  -6.12394
 Alpha  occ. eigenvalues --   -1.14996  -1.13401  -1.02436  -0.96831  -0.88138
 Alpha  occ. eigenvalues --   -0.87646  -0.85532  -0.81304  -0.78485  -0.76786
 Alpha  occ. eigenvalues --   -0.75608  -0.75436  -0.69428  -0.65040  -0.63830
 Alpha  occ. eigenvalues --   -0.62716  -0.61462  -0.59994  -0.59248  -0.56271
 Alpha  occ. eigenvalues --   -0.54898  -0.52513  -0.50368  -0.49744  -0.49163
 Alpha  occ. eigenvalues --   -0.48183  -0.47925  -0.46573  -0.45986  -0.45684
 Alpha  occ. eigenvalues --   -0.44814  -0.44249  -0.43374  -0.42633  -0.40567
 Alpha  occ. eigenvalues --   -0.39433  -0.38902  -0.38276  -0.37187  -0.36553
 Alpha  occ. eigenvalues --   -0.36276  -0.35813  -0.35165  -0.34076  -0.32945
 Alpha  occ. eigenvalues --   -0.32581  -0.32516  -0.30165  -0.28371  -0.27228
 Alpha  occ. eigenvalues --   -0.26444  -0.26109  -0.23756
 Alpha virt. eigenvalues --   -0.05581  -0.04548  -0.02106  -0.01102   0.01400
 Alpha virt. eigenvalues --    0.04622   0.06710   0.07000   0.08133   0.09507
 Alpha virt. eigenvalues --    0.09866   0.10893   0.12414   0.12441   0.13164

 Mulliken charges:
               1
     1  O   -0.560552
     2  S    1.196693
     3  N   -0.771412
     4  C    0.492514
     5  N   -0.280329
     6  O   -0.413088
     7  C    0.392562
     8  C    0.079064
     9  C   -0.179144
    10  C   -0.153581
    11  C   -0.133974
    12  C   -0.149608
    13  C   -0.175795
    14  C   -0.278313
    15  C   -0.143695
    16  C   -0.142028
    17  C   -0.137264
    18  C   -0.124442
    19  C   -0.136741
    20  C   -0.142516
    21  O   -0.570031
    22  H    0.424516
    23  H    0.165686
    24  H    0.160860
    25  H    0.159703
    26  H    0.160331
    27  H    0.166249
    28  H    0.201444
    29  H    0.188309
    30  H    0.172788
    31  H    0.171679
    32  H    0.172675
    33  H    0.187441
 Sum of Mulliken charges =   0.00000

 Dipole moment (field-independent basis, Debye):
    X=             -1.7280    Y=              6.1918    Z=              0.6979  Tot=              6.4662
 Quadrupole moment (field-independent basis, Debye-Ang):
   XX=           -103.9760   YY=           -124.7523   ZZ=           -128.2755
   XY=             11.9777   XZ=             17.9273   YZ=             -4.7025

 Normal termination of Gaussian 09 at Thu Aug  6 22:05:06 2020.
