 Gaussian 09, Revision D.01,

 -----------------
 #p b3lyp/6-31G(d)
 -----------------

 ----------------
 SM42.n.7.pdb.xyz
 ----------------
 Symbolic Z-matrix:
 Charge =  0 Multiplicity = 1

 SCF Done:  E(RB3LYP) =  -1312.07172334     A.U. after   16 cycles
 Normal termination of Gaussian 09 at Thu Aug  6 22:01:32 2020.
 Gaussian 09:  AM64L-G09RevD.01 24-Apr-2013

 ----------------------------------------------------------------------
 #p b3lyp/6-31G(d) scrf=(iefpcm,read,solvent=Water) geom=allcheck guess
 =read
 ----------------------------------------------------------------------

 Structure from the checkpoint file:  "SM42.n.7.pdb.xyz.mst.n.w.chk"
 ----------------
 SM42.n.7.pdb.xyz
 ----------------
 Charge =  0 Multiplicity = 1

                         Standard orientation:
 ---------------------------------------------------------------------
 Center     Atomic      Atomic             Coordinates (Angstroms)
 Number     Number       Type             X           Y           Z
 ---------------------------------------------------------------------
      1          8           0        3.553208   -2.146438   -0.509103
      2         16           0        2.385768   -1.269809   -0.645223
      3          7           0        1.329489   -1.806835    0.564252
      4          6           0        0.058525   -1.252701    0.740542
      5          7           0       -0.399924   -1.083090    1.968083
      6          8           0       -1.708311   -0.610963    1.794726
      7          6           0       -1.979589   -0.493774    0.471284
      8          6           0       -3.302058   -0.004926    0.097338
      9          6           0       -3.634667    0.159206   -1.257199
     10          6           0       -4.896765    0.622289   -1.617126
     11          6           0       -5.839387    0.929401   -0.631567
     12          6           0       -5.513375    0.770667    0.716859
     13          6           0       -4.252464    0.306224    1.083247
     14          6           0       -0.890475   -0.895184   -0.251378
     15          6           0        2.871826    0.399000   -0.253291
     16          6           0        2.190222    1.460428   -0.851920
     17          6           0        2.562923    2.763194   -0.524455
     18          6           0        3.596867    2.988492    0.385234
     19          6           0        4.269848    1.914751    0.974114
     20          6           0        3.909498    0.606295    0.658399
     21          8           0        1.608030   -1.245209   -1.888933
     22          1           0        1.826534   -2.001369    1.436916
     23          1           0       -2.905532   -0.076544   -2.024549
     24          1           0       -5.144236    0.744742   -2.665769
     25          1           0       -6.821712    1.290606   -0.914671
     26          1           0       -6.241868    1.007135    1.484479
     27          1           0       -3.996989    0.180666    2.128527
     28          1           0       -0.764578   -0.943242   -1.318904
     29          1           0        1.401334    1.263102   -1.565840
     30          1           0        2.049015    3.599460   -0.985077
     31          1           0        3.883412    4.004834    0.634702
     32          1           0        5.077251    2.094597    1.675681
     33          1           0        4.429150   -0.236869    1.097728
 ---------------------------------------------------------------------

 SCF Done:  E(RB3LYP) =  -1312.09076926     A.U. after   11 cycles

 The electronic state is 1-A.
 Alpha  occ. eigenvalues --  -89.13633 -19.24445 -19.16595 -19.16509 -14.39517
 Alpha  occ. eigenvalues --  -14.38774 -10.28039 -10.27278 -10.23850 -10.21821
 Alpha  occ. eigenvalues --  -10.21792 -10.21771 -10.21002 -10.20860 -10.20825
 Alpha  occ. eigenvalues --  -10.20380 -10.20340 -10.20217 -10.19992 -10.19894
 Alpha  occ. eigenvalues --  -10.19857  -8.16126  -6.12644  -6.12558  -6.12400
 Alpha  occ. eigenvalues --   -1.15001  -1.13366  -1.02406  -0.96812  -0.88154
 Alpha  occ. eigenvalues --   -0.87643  -0.85521  -0.81317  -0.78509  -0.76789
 Alpha  occ. eigenvalues --   -0.75608  -0.75441  -0.69438  -0.65028  -0.63844
 Alpha  occ. eigenvalues --   -0.62729  -0.61463  -0.59999  -0.59253  -0.56267
 Alpha  occ. eigenvalues --   -0.54906  -0.52508  -0.50359  -0.49742  -0.49163
 Alpha  occ. eigenvalues --   -0.48183  -0.47934  -0.46580  -0.45988  -0.45685
 Alpha  occ. eigenvalues --   -0.44819  -0.44251  -0.43379  -0.42624  -0.40563
 Alpha  occ. eigenvalues --   -0.39436  -0.38905  -0.38274  -0.37184  -0.36558
 Alpha  occ. eigenvalues --   -0.36268  -0.35804  -0.35171  -0.34064  -0.32949
 Alpha  occ. eigenvalues --   -0.32572  -0.32512  -0.30168  -0.28379  -0.27232
 Alpha  occ. eigenvalues --   -0.26437  -0.26104  -0.23760
 Alpha virt. eigenvalues --   -0.05569  -0.04556  -0.02115  -0.01106   0.01399
 Alpha virt. eigenvalues --    0.04624   0.06696   0.06972   0.08119   0.09501
 Alpha virt. eigenvalues --    0.09858   0.10858   0.12409   0.12431   0.13165

 Mulliken charges:
               1
     1  O   -0.560974
     2  S    1.197000
     3  N   -0.772096
     4  C    0.492819
     5  N   -0.280638
     6  O   -0.413236
     7  C    0.392519
     8  C    0.079855
     9  C   -0.179572
    10  C   -0.153356
    11  C   -0.134059
    12  C   -0.149540
    13  C   -0.175997
    14  C   -0.278415
    15  C   -0.143007
    16  C   -0.142149
    17  C   -0.136574
    18  C   -0.124406
    19  C   -0.137292
    20  C   -0.142495
    21  O   -0.570432
    22  H    0.424540
    23  H    0.165569
    24  H    0.160956
    25  H    0.159582
    26  H    0.160343
    27  H    0.166181
    28  H    0.201577
    29  H    0.187548
    30  H    0.172671
    31  H    0.171683
    32  H    0.173004
    33  H    0.188391
 Sum of Mulliken charges =   0.00000

 Dipole moment (field-independent basis, Debye):
    X=             -1.6996    Y=              6.2016    Z=              0.7546  Tot=              6.4744
 Quadrupole moment (field-independent basis, Debye-Ang):
   XX=           -103.9759   YY=           -124.6698   ZZ=           -128.3712
   XY=             11.8369   XZ=             18.0133   YZ=             -4.8410

 Normal termination of Gaussian 09 at Thu Aug  6 22:05:07 2020.
