 Gaussian 09, Revision D.01,

 -----------------
 #p b3lyp/6-31G(d)
 -----------------

 ----------------
 SM42.n.5.pdb.xyz
 ----------------
 Symbolic Z-matrix:
 Charge =  0 Multiplicity = 1

 SCF Done:  E(RB3LYP) =  -1312.06937963     A.U. after   16 cycles
 Normal termination of Gaussian 09 at Thu Aug  6 22:01:09 2020.
 Gaussian 09:  AM64L-G09RevD.01 24-Apr-2013

 ----------------------------------------------------------------------
 #p b3lyp/6-31G(d) scrf=(iefpcm,read,solvent=Water) geom=allcheck guess
 =read
 ----------------------------------------------------------------------

 Structure from the checkpoint file:  "SM42.n.5.pdb.xyz.mst.n.w.chk"
 ----------------
 SM42.n.5.pdb.xyz
 ----------------
 Charge =  0 Multiplicity = 1

                         Standard orientation:
 ---------------------------------------------------------------------
 Center     Atomic      Atomic             Coordinates (Angstroms)
 Number     Number       Type             X           Y           Z
 ---------------------------------------------------------------------
      1          8           0        1.286394    1.515080    0.760768
      2         16           0        1.907856    0.184599    0.819751
      3          7           0        1.079119   -0.770230   -0.323922
      4          6           0       -0.317448   -0.863064   -0.266849
      5          7           0       -0.884197   -2.039592   -0.466047
      6          8           0       -2.261961   -1.777069   -0.447649
      7          6           0       -2.470950   -0.457986   -0.216596
      8          6           0       -3.853732    0.001180   -0.151859
      9          6           0       -4.134190    1.354096    0.099031
     10          6           0       -5.452323    1.795428    0.161034
     11          6           0       -6.504818    0.894706   -0.026677
     12          6           0       -6.231052   -0.451573   -0.276096
     13          6           0       -4.914244   -0.898910   -0.340142
     14          6           0       -1.266220    0.178879   -0.097479
     15          6           0        3.529511    0.215075    0.086505
     16          6           0        3.730304    0.936740   -1.092341
     17          6           0        5.009560    0.974781   -1.638953
     18          6           0        6.062217    0.305404   -1.006892
     19          6           0        5.843869   -0.405849    0.174274
     20          6           0        4.567335   -0.454808    0.733590
     21          8           0        1.990909   -0.490186    2.124467
     22          1           0        1.533591   -1.682129   -0.428604
     23          1           0       -3.320434    2.056369    0.245755
     24          1           0       -5.659245    2.842387    0.356130
     25          1           0       -7.531203    1.241692    0.022063
     26          1           0       -7.043707   -1.155499   -0.422587
     27          1           0       -4.698646   -1.942351   -0.534075
     28          1           0       -1.064483    1.220653    0.079252
     29          1           0        2.905957    1.454480   -1.569267
     30          1           0        5.186347    1.527544   -2.554464
     31          1           0        7.057250    0.341049   -1.437967
     32          1           0        6.663674   -0.920164    0.662674
     33          1           0        4.371122   -0.996062    1.650876
 ---------------------------------------------------------------------

 SCF Done:  E(RB3LYP) =  -1312.08894100     A.U. after   11 cycles

 The electronic state is 1-A.
 Alpha  occ. eigenvalues --  -89.13497 -19.24311 -19.16466 -19.16352 -14.39297
 Alpha  occ. eigenvalues --  -14.38618 -10.27926 -10.27145 -10.23886 -10.21915
 Alpha  occ. eigenvalues --  -10.21826 -10.21725 -10.21085 -10.20876 -10.20843
 Alpha  occ. eigenvalues --  -10.20326 -10.20204 -10.20154 -10.19958 -10.19860
 Alpha  occ. eigenvalues --  -10.19824  -8.16036  -6.12558  -6.12447  -6.12314
 Alpha  occ. eigenvalues --   -1.14856  -1.13028  -1.01894  -0.96663  -0.88321
 Alpha  occ. eigenvalues --   -0.87565  -0.85482  -0.81254  -0.78566  -0.76851
 Alpha  occ. eigenvalues --   -0.75571  -0.75367  -0.69748  -0.64962  -0.63087
 Alpha  occ. eigenvalues --   -0.62739  -0.61175  -0.59806  -0.59199  -0.55821
 Alpha  occ. eigenvalues --   -0.54922  -0.52456  -0.50325  -0.49500  -0.49103
 Alpha  occ. eigenvalues --   -0.48008  -0.47934  -0.46373  -0.46140  -0.45679
 Alpha  occ. eigenvalues --   -0.44758  -0.44284  -0.43311  -0.42541  -0.40472
 Alpha  occ. eigenvalues --   -0.39436  -0.38784  -0.38194  -0.37401  -0.36608
 Alpha  occ. eigenvalues --   -0.36411  -0.36177  -0.35114  -0.33711  -0.32959
 Alpha  occ. eigenvalues --   -0.32511  -0.31974  -0.30058  -0.27984  -0.27269
 Alpha  occ. eigenvalues --   -0.26412  -0.26045  -0.23671
 Alpha virt. eigenvalues --   -0.05425  -0.04604  -0.02079  -0.01062   0.01479
 Alpha virt. eigenvalues --    0.04515   0.06967   0.06982   0.07812   0.09214
 Alpha virt. eigenvalues --    0.09777   0.10761   0.11606   0.12871   0.13735

 Mulliken charges:
               1
     1  O   -0.573530
     2  S    1.211050
     3  N   -0.797121
     4  C    0.497220
     5  N   -0.282460
     6  O   -0.414696
     7  C    0.391583
     8  C    0.079648
     9  C   -0.179557
    10  C   -0.153712
    11  C   -0.134422
    12  C   -0.149817
    13  C   -0.176232
    14  C   -0.276198
    15  C   -0.172919
    16  C   -0.129235
    17  C   -0.137452
    18  C   -0.123211
    19  C   -0.137337
    20  C   -0.132695
    21  O   -0.539273
    22  H    0.421821
    23  H    0.165730
    24  H    0.160483
    25  H    0.159295
    26  H    0.159964
    27  H    0.165647
    28  H    0.199175
    29  H    0.189459
    30  H    0.173486
    31  H    0.172283
    32  H    0.172946
    33  H    0.190074
 Sum of Mulliken charges =   0.00000

 Dipole moment (field-independent basis, Debye):
    X=              3.0707    Y=              1.2927    Z=             -3.6044  Tot=              4.9084
 Quadrupole moment (field-independent basis, Debye-Ang):
   XX=            -66.8302   YY=           -127.7082   ZZ=           -132.4635
   XY=            -10.4799   XZ=            -10.8523   YZ=             -3.8801

 Normal termination of Gaussian 09 at Thu Aug  6 22:04:28 2020.
