 Gaussian 09, Revision D.01,

 -----------------
 #p b3lyp/6-31G(d)
 -----------------

 ----------------
 SM42.n.3.pdb.xyz
 ----------------
 Symbolic Z-matrix:
 Charge =  0 Multiplicity = 1

 SCF Done:  E(RB3LYP) =  -1312.06967637     A.U. after   16 cycles
 Normal termination of Gaussian 09 at Thu Aug  6 22:12:04 2020.
 Gaussian 09:  AM64L-G09RevD.01 24-Apr-2013

 ----------------------------------------------------------------------
 #p b3lyp/6-31G(d) scrf=(iefpcm,read,solvent=n-Octanol) geom=allcheck g
 uess=read
 ----------------------------------------------------------------------

 Structure from the checkpoint file:  "SM42.n.3.pdb.xyz.mst.n.o.chk"
 ----------------
 SM42.n.3.pdb.xyz
 ----------------
 Charge =  0 Multiplicity = 1

                         Standard orientation:
 ---------------------------------------------------------------------
 Center     Atomic      Atomic             Coordinates (Angstroms)
 Number     Number       Type             X           Y           Z
 ---------------------------------------------------------------------
      1          8           0        1.751878   -1.050058    1.944001
      2         16           0        2.432795   -1.190591    0.654850
      3          7           0        1.350458   -1.755166   -0.537602
      4          6           0       -0.026720   -1.535371   -0.446959
      5          7           0       -0.850982   -2.510484   -0.777079
      6          8           0       -2.127745   -1.946957   -0.670495
      7          6           0       -2.026473   -0.660284   -0.259028
      8          6           0       -3.266814    0.085342   -0.080525
      9          6           0       -3.232802    1.414812    0.369172
     10          6           0       -4.415541    2.127180    0.538198
     11          6           0       -5.644629    1.523499    0.263331
     12          6           0       -5.684470    0.201308   -0.183713
     13          6           0       -4.504167   -0.515959   -0.355201
     14          6           0       -0.706954   -0.338437   -0.104932
     15          6           0        2.845977    0.447808    0.081309
     16          6           0        3.468366    0.611070   -1.158276
     17          6           0        3.821281    1.893932   -1.564950
     18          6           0        3.558314    2.989527   -0.737819
     19          6           0        2.942853    2.809599    0.501273
     20          6           0        2.583450    1.528733    0.921765
     21          8           0        3.591074   -2.076901    0.505257
     22          1           0        1.604816   -2.702751   -0.816479
     23          1           0       -2.281184    1.887276    0.586647
     24          1           0       -4.378822    3.153917    0.886639
     25          1           0       -6.565781    2.080184    0.397307
     26          1           0       -6.636440   -0.273413   -0.398784
     27          1           0       -4.529253   -1.542770   -0.702005
     28          1           0       -0.283191    0.605407    0.196195
     29          1           0        3.666613   -0.247118   -1.790277
     30          1           0        4.301171    2.039615   -2.526221
     31          1           0        3.835745    3.986754   -1.061884
     32          1           0        2.744553    3.661031    1.141897
     33          1           0        2.109036    1.355650    1.880157
 ---------------------------------------------------------------------

 SCF Done:  E(RB3LYP) =  -1312.09522041     A.U. after   11 cycles

 The electronic state is 1-A.
 Alpha  occ. eigenvalues --  -89.13355 -19.24250 -19.16414 -19.16203 -14.39355
 Alpha  occ. eigenvalues --  -14.38449 -10.27839 -10.27239 -10.24044 -10.22204
 Alpha  occ. eigenvalues --  -10.22094 -10.21919 -10.21482 -10.21329 -10.21316
 Alpha  occ. eigenvalues --  -10.20680 -10.20653 -10.20347 -10.20225 -10.20154
 Alpha  occ. eigenvalues --  -10.20083  -8.15869  -6.12405  -6.12283  -6.12137
 Alpha  occ. eigenvalues --   -1.14917  -1.13067  -1.02123  -0.96630  -0.88502
 Alpha  occ. eigenvalues --   -0.87766  -0.85466  -0.81388  -0.78872  -0.77220
 Alpha  occ. eigenvalues --   -0.75829  -0.75611  -0.69678  -0.64958  -0.64071
 Alpha  occ. eigenvalues --   -0.63119  -0.61550  -0.60131  -0.59437  -0.56041
 Alpha  occ. eigenvalues --   -0.54990  -0.52613  -0.50479  -0.49836  -0.49204
 Alpha  occ. eigenvalues --   -0.48356  -0.47942  -0.46890  -0.46490  -0.45681
 Alpha  occ. eigenvalues --   -0.45082  -0.44703  -0.43593  -0.42885  -0.40533
 Alpha  occ. eigenvalues --   -0.39650  -0.39072  -0.38469  -0.37425  -0.37013
 Alpha  occ. eigenvalues --   -0.36497  -0.35912  -0.35427  -0.33559  -0.32826
 Alpha  occ. eigenvalues --   -0.32245  -0.31958  -0.30154  -0.28302  -0.27634
 Alpha  occ. eigenvalues --   -0.26531  -0.26165  -0.23724
 Alpha virt. eigenvalues --   -0.05431  -0.04782  -0.02525  -0.01255   0.01470
 Alpha virt. eigenvalues --    0.04295   0.06569   0.06787   0.07829   0.08576
 Alpha virt. eigenvalues --    0.09449   0.11043   0.11564   0.11774   0.12718

 Mulliken charges:
               1
     1  O   -0.536296
     2  S    1.225933
     3  N   -0.817764
     4  C    0.514774
     5  N   -0.253979
     6  O   -0.407431
     7  C    0.379965
     8  C    0.082437
     9  C   -0.171427
    10  C   -0.145528
    11  C   -0.127466
    12  C   -0.141773
    13  C   -0.170603
    14  C   -0.270416
    15  C   -0.156823
    16  C   -0.126579
    17  C   -0.132731
    18  C   -0.120670
    19  C   -0.130840
    20  C   -0.149467
    21  O   -0.547209
    22  H    0.395848
    23  H    0.148923
    24  H    0.152347
    25  H    0.151658
    26  H    0.152663
    27  H    0.163766
    28  H    0.173871
    29  H    0.180081
    30  H    0.166195
    31  H    0.164601
    32  H    0.165547
    33  H    0.188394
 Sum of Mulliken charges =   0.00000

 Dipole moment (field-independent basis, Debye):
    X=             -1.2234    Y=              7.2510    Z=             -2.4068  Tot=              7.7374
 Quadrupole moment (field-independent basis, Debye-Ang):
   XX=           -112.0526   YY=           -119.7289   ZZ=           -129.1765
   XY=              8.0255   XZ=            -12.4329   YZ=              5.1940

 Normal termination of Gaussian 09 at Thu Aug  6 22:15:34 2020.
