 Gaussian 09, Revision D.01,

 -----------------
 #p b3lyp/6-31G(d)
 -----------------

 ----------------
 SM42.n.2.pdb.xyz
 ----------------
 Symbolic Z-matrix:
 Charge =  0 Multiplicity = 1

 SCF Done:  E(RB3LYP) =  -1312.07182966     A.U. after   16 cycles
 Normal termination of Gaussian 09 at Thu Aug  6 22:01:24 2020.
 Gaussian 09:  AM64L-G09RevD.01 24-Apr-2013

 ----------------------------------------------------------------------
 #p b3lyp/6-31G(d) scrf=(iefpcm,read,solvent=Water) geom=allcheck guess
 =read
 ----------------------------------------------------------------------

 Structure from the checkpoint file:  "SM42.n.2.pdb.xyz.mst.n.w.chk"
 ----------------
 SM42.n.2.pdb.xyz
 ----------------
 Charge =  0 Multiplicity = 1

                         Standard orientation:
 ---------------------------------------------------------------------
 Center     Atomic      Atomic             Coordinates (Angstroms)
 Number     Number       Type             X           Y           Z
 ---------------------------------------------------------------------
      1          8           0        3.564444   -2.142542   -0.487365
      2         16           0        2.393331   -1.274984   -0.638585
      3          7           0        1.332641   -1.809053    0.569948
      4          6           0        0.063416   -1.247610    0.740896
      5          7           0       -0.388355   -1.056150    1.966106
      6          8           0       -1.696853   -0.585982    1.792813
      7          6           0       -1.975325   -0.491890    0.468865
      8          6           0       -3.299509   -0.007534    0.096912
      9          6           0       -4.250699    0.299311    1.083306
     10          6           0       -5.512765    0.760133    0.718606
     11          6           0       -5.840757    0.917470   -0.630097
     12          6           0       -4.897181    0.613275   -1.616587
     13          6           0       -3.634387    0.153589   -1.257470
     14          6           0       -0.891134   -0.906343   -0.253625
     15          6           0        2.867149    0.400115   -0.254982
     16          6           0        3.892412    0.618675    0.668294
     17          6           0        4.242543    1.930128    0.978837
     18          6           0        3.573698    2.997167    0.372590
     19          6           0        2.552615    2.761185   -0.550639
     20          6           0        2.188998    1.453241   -0.871897
     21          8           0        1.623236   -1.263802   -1.885711
     22          1           0        1.825803   -1.991103    1.447154
     23          1           0       -3.992861    0.174382    2.128592
     24          1           0       -6.241457    0.994593    1.486656
     25          1           0       -6.824623    1.276797   -0.912012
     26          1           0       -5.146303    0.735580   -2.665210
     27          1           0       -2.903509   -0.079081   -2.024513
     28          1           0       -0.772296   -0.976940   -1.320367
     29          1           0        4.407925   -0.219348    1.120963
     30          1           0        5.039228    2.118988    1.688622
     31          1           0        3.852691    4.016608    0.617880
     32          1           0        2.041651    3.591519   -1.024336
     33          1           0        1.409388    1.247321   -1.594387
 ---------------------------------------------------------------------

 SCF Done:  E(RB3LYP) =  -1312.09079502     A.U. after   11 cycles

 The electronic state is 1-A.
 Alpha  occ. eigenvalues --  -89.13611 -19.24454 -19.16610 -19.16507 -14.39495
 Alpha  occ. eigenvalues --  -14.38781 -10.28028 -10.27278 -10.23845 -10.21807
 Alpha  occ. eigenvalues --  -10.21784 -10.21779 -10.21013 -10.20849 -10.20840
 Alpha  occ. eigenvalues --  -10.20374 -10.20370 -10.20214 -10.20006 -10.19897
 Alpha  occ. eigenvalues --  -10.19858  -8.16109  -6.12626  -6.12541  -6.12383
 Alpha  occ. eigenvalues --   -1.15035  -1.13415  -1.02465  -0.96814  -0.88142
 Alpha  occ. eigenvalues --   -0.87649  -0.85528  -0.81315  -0.78484  -0.76791
 Alpha  occ. eigenvalues --   -0.75612  -0.75434  -0.69403  -0.65033  -0.63823
 Alpha  occ. eigenvalues --   -0.62725  -0.61451  -0.59984  -0.59248  -0.56269
 Alpha  occ. eigenvalues --   -0.54897  -0.52516  -0.50346  -0.49744  -0.49174
 Alpha  occ. eigenvalues --   -0.48191  -0.47938  -0.46569  -0.45995  -0.45690
 Alpha  occ. eigenvalues --   -0.44814  -0.44261  -0.43375  -0.42621  -0.40586
 Alpha  occ. eigenvalues --   -0.39431  -0.38896  -0.38279  -0.37183  -0.36561
 Alpha  occ. eigenvalues --   -0.36277  -0.35803  -0.35155  -0.34095  -0.32949
 Alpha  occ. eigenvalues --   -0.32606  -0.32518  -0.30171  -0.28365  -0.27237
 Alpha  occ. eigenvalues --   -0.26451  -0.26121  -0.23762
 Alpha virt. eigenvalues --   -0.05565  -0.04554  -0.02117  -0.01094   0.01367
 Alpha virt. eigenvalues --    0.04646   0.06668   0.06989   0.08190   0.09514
 Alpha virt. eigenvalues --    0.09846   0.10886   0.12419   0.12440   0.13167

 Mulliken charges:
               1
     1  O   -0.560683
     2  S    1.196846
     3  N   -0.771528
     4  C    0.490704
     5  N   -0.279224
     6  O   -0.412956
     7  C    0.392685
     8  C    0.079240
     9  C   -0.175845
    10  C   -0.149502
    11  C   -0.134371
    12  C   -0.153522
    13  C   -0.179013
    14  C   -0.277751
    15  C   -0.143916
    16  C   -0.142187
    17  C   -0.137094
    18  C   -0.124639
    19  C   -0.136742
    20  C   -0.142481
    21  O   -0.569301
    22  H    0.423992
    23  H    0.166178
    24  H    0.160377
    25  H    0.159631
    26  H    0.160930
    27  H    0.165455
    28  H    0.201105
    29  H    0.188460
    30  H    0.172942
    31  H    0.171685
    32  H    0.172770
    33  H    0.187758
 Sum of Mulliken charges =   0.00000

 Dipole moment (field-independent basis, Debye):
    X=             -1.7883    Y=              6.1757    Z=              0.7133  Tot=              6.4688
 Quadrupole moment (field-independent basis, Debye-Ang):
   XX=           -104.3954   YY=           -124.6732   ZZ=           -128.1066
   XY=             12.0703   XZ=             17.8515   YZ=             -4.9189

 Normal termination of Gaussian 09 at Thu Aug  6 22:04:58 2020.
