 Gaussian 09, Revision D.01,

 -----------------
 #p b3lyp/6-31G(d)
 -----------------

 ----------------
 SM42.n.5.pdb.xyz
 ----------------
 Symbolic Z-matrix:
 Charge =  0 Multiplicity = 1

 SCF Done:  E(RB3LYP) =  -1312.06979651     A.U. after   16 cycles
 Normal termination of Gaussian 09 at Thu Aug  6 22:12:09 2020.
 Gaussian 09:  AM64L-G09RevD.01 24-Apr-2013

 ----------------------------------------------------------------------
 #p b3lyp/6-31G(d) scrf=(iefpcm,read,solvent=n-Octanol) geom=allcheck g
 uess=read
 ----------------------------------------------------------------------

 Structure from the checkpoint file:  "SM42.n.5.pdb.xyz.mst.n.o.chk"
 ----------------
 SM42.n.5.pdb.xyz
 ----------------
 Charge =  0 Multiplicity = 1

                         Standard orientation:
 ---------------------------------------------------------------------
 Center     Atomic      Atomic             Coordinates (Angstroms)
 Number     Number       Type             X           Y           Z
 ---------------------------------------------------------------------
      1          8           0        1.267715    1.409928    0.911396
      2         16           0        1.919622    0.096258    0.870574
      3          7           0        1.081356   -0.797459   -0.320554
      4          6           0       -0.317453   -0.872125   -0.282489
      5          7           0       -0.893421   -2.026460   -0.556892
      6          8           0       -2.265851   -1.751018   -0.537205
      7          6           0       -2.464124   -0.445851   -0.232121
      8          6           0       -3.843884    0.021070   -0.155129
      9          6           0       -4.118716    1.360363    0.163888
     10          6           0       -5.434353    1.805919    0.237740
     11          6           0       -6.489981    0.922896   -0.005300
     12          6           0       -6.221840   -0.409909   -0.322277
     13          6           0       -4.907080   -0.860914   -0.397370
     14          6           0       -1.254826    0.171242   -0.061578
     15          6           0        3.517717    0.213502    0.091992
     16          6           0        3.665628    0.995806   -1.055803
     17          6           0        4.927184    1.099369   -1.632869
     18          6           0        6.016754    0.433472   -1.062817
     19          6           0        5.852379   -0.337975    0.087637
     20          6           0        4.594049   -0.453102    0.677737
     21          8           0        2.065666   -0.675068    2.110258
     22          1           0        1.514666   -1.710533   -0.466750
     23          1           0       -3.301484    2.048011    0.353665
     24          1           0       -5.636662    2.842415    0.484372
     25          1           0       -7.514678    1.273168    0.052177
     26          1           0       -7.036647   -1.099528   -0.511563
     27          1           0       -4.693130   -1.894441   -0.642715
     28          1           0       -1.038005    1.194526    0.184986
     29          1           0        2.812920    1.509300   -1.482108
     30          1           0        5.061956    1.700772   -2.525054
     31          1           0        6.996981    0.519526   -1.518649
     32          1           0        6.700716   -0.848805    0.527899
     33          1           0        4.434913   -1.040414    1.573646
 ---------------------------------------------------------------------

 SCF Done:  E(RB3LYP) =  -1312.09511776     A.U. after   11 cycles

 The electronic state is 1-A.
 Alpha  occ. eigenvalues --  -89.13282 -19.24064 -19.16235 -19.16111 -14.39456
 Alpha  occ. eigenvalues --  -14.38288 -10.27662 -10.26948 -10.24025 -10.22209
 Alpha  occ. eigenvalues --  -10.22120 -10.21725 -10.21504 -10.21301 -10.21260
 Alpha  occ. eigenvalues --  -10.20434 -10.20187 -10.20129 -10.20082 -10.20000
 Alpha  occ. eigenvalues --  -10.19941  -8.15824  -6.12352  -6.12226  -6.12104
 Alpha  occ. eigenvalues --   -1.14707  -1.12903  -1.01815  -0.96704  -0.88542
 Alpha  occ. eigenvalues --   -0.87595  -0.85401  -0.81174  -0.78782  -0.77207
 Alpha  occ. eigenvalues --   -0.75666  -0.75395  -0.69780  -0.64970  -0.63282
 Alpha  occ. eigenvalues --   -0.63004  -0.61360  -0.59914  -0.59324  -0.56019
 Alpha  occ. eigenvalues --   -0.54980  -0.52515  -0.50440  -0.49489  -0.49194
 Alpha  occ. eigenvalues --   -0.48035  -0.47840  -0.46507  -0.46426  -0.45708
 Alpha  occ. eigenvalues --   -0.44795  -0.44684  -0.43405  -0.42636  -0.40313
 Alpha  occ. eigenvalues --   -0.39661  -0.39023  -0.38321  -0.37339  -0.36982
 Alpha  occ. eigenvalues --   -0.36346  -0.36093  -0.35263  -0.33492  -0.32778
 Alpha  occ. eigenvalues --   -0.31947  -0.31781  -0.29963  -0.28228  -0.27583
 Alpha  occ. eigenvalues --   -0.26375  -0.25968  -0.23538
 Alpha virt. eigenvalues --   -0.05303  -0.04820  -0.02413  -0.01104   0.01686
 Alpha virt. eigenvalues --    0.04458   0.06790   0.06971   0.07671   0.09036
 Alpha virt. eigenvalues --    0.09717   0.10562   0.11136   0.12396   0.13359

 Mulliken charges:
               1
     1  O   -0.555031
     2  S    1.207610
     3  N   -0.793882
     4  C    0.490301
     5  N   -0.255627
     6  O   -0.408138
     7  C    0.383684
     8  C    0.081779
     9  C   -0.174119
    10  C   -0.146002
    11  C   -0.128134
    12  C   -0.141992
    13  C   -0.171509
    14  C   -0.273800
    15  C   -0.177107
    16  C   -0.123439
    17  C   -0.132993
    18  C   -0.119932
    19  C   -0.131562
    20  C   -0.136127
    21  O   -0.516681
    22  H    0.388264
    23  H    0.154821
    24  H    0.151884
    25  H    0.150496
    26  H    0.151422
    27  H    0.162314
    28  H    0.194419
    29  H    0.183266
    30  H    0.165938
    31  H    0.164968
    32  H    0.165603
    33  H    0.189306
 Sum of Mulliken charges =   0.00000

 Dipole moment (field-independent basis, Debye):
    X=              2.6893    Y=              1.6112    Z=             -3.2429  Tot=              4.5105
 Quadrupole moment (field-independent basis, Debye-Ang):
   XX=            -72.0742   YY=           -127.0378   ZZ=           -132.4694
   XY=             -8.1269   XZ=            -10.5193   YZ=             -3.3068

 Normal termination of Gaussian 09 at Thu Aug  6 22:15:19 2020.
