 Gaussian 09, Revision D.01,

 -----------------
 #p b3lyp/6-31G(d)
 -----------------

 ----------------
 SM42.n.4.pdb.xyz
 ----------------
 Symbolic Z-matrix:
 Charge =  0 Multiplicity = 1

 SCF Done:  E(RB3LYP) =  -1312.06694375     A.U. after   16 cycles
 Normal termination of Gaussian 09 at Thu Aug  6 22:11:57 2020.
 Gaussian 09:  AM64L-G09RevD.01 24-Apr-2013

 ----------------------------------------------------------------------
 #p b3lyp/6-31G(d) scrf=(iefpcm,read,solvent=n-Octanol) geom=allcheck g
 uess=read
 ----------------------------------------------------------------------

 Structure from the checkpoint file:  "SM42.n.4.pdb.xyz.mst.n.o.chk"
 ----------------
 SM42.n.4.pdb.xyz
 ----------------
 Charge =  0 Multiplicity = 1

                         Standard orientation:
 ---------------------------------------------------------------------
 Center     Atomic      Atomic             Coordinates (Angstroms)
 Number     Number       Type             X           Y           Z
 ---------------------------------------------------------------------
      1          8           0        3.446939   -2.293346    0.484864
      2         16           0        2.602955   -1.397973   -0.310178
      3          7           0        1.071337   -1.615185    0.382179
      4          6           0       -0.099829   -0.965831    0.011936
      5          7           0       -0.171321   -0.172464   -1.038294
      6          8           0       -1.507738    0.250764   -1.070560
      7          6           0       -2.187989   -0.298540   -0.038367
      8          6           0       -3.602389    0.033276    0.082201
      9          6           0       -4.364851   -0.492016    1.137281
     10          6           0       -5.715818   -0.173146    1.250805
     11          6           0       -6.319276    0.671075    0.315028
     12          6           0       -5.564878    1.195574   -0.736685
     13          6           0       -4.214509    0.881187   -0.854742
     14          6           0       -1.343052   -1.085878    0.692633
     15          6           0        3.103679    0.282028    0.032529
     16          6           0        2.613141    1.331430   -0.749031
     17          6           0        3.035291    2.627721   -0.460337
     18          6           0        3.933528    2.860432    0.582365
     19          6           0        4.417580    1.798892    1.349691
     20          6           0        4.001876    0.496358    1.079121
     21          8           0        2.465990   -1.564536   -1.754223
     22          1           0        1.118014   -1.979008    1.329201
     23          1           0       -3.900631   -1.147163    1.866086
     24          1           0       -6.296612   -0.583433    2.068960
     25          1           0       -7.371164    0.917208    0.405442
     26          1           0       -6.029098    1.850721   -1.465489
     27          1           0       -3.623060    1.284016   -1.668441
     28          1           0       -1.561759   -1.670961    1.570593
     29          1           0        1.905390    1.128768   -1.543181
     30          1           0        2.664878    3.455215   -1.054278
     31          1           0        4.259747    3.872808    0.796901
     32          1           0        5.120419    1.982987    2.155028
     33          1           0        4.369942   -0.348485    1.647617
 ---------------------------------------------------------------------

 SCF Done:  E(RB3LYP) =  -1312.09446407     A.U. after   11 cycles

 The electronic state is 1-A.
 Alpha  occ. eigenvalues --  -89.13098 -19.24072 -19.15722 -19.15700 -14.39452
 Alpha  occ. eigenvalues --  -14.38199 -10.28071 -10.27221 -10.23443 -10.21906
 Alpha  occ. eigenvalues --  -10.21538 -10.21294 -10.20987 -10.20804 -10.20716
 Alpha  occ. eigenvalues --  -10.20661 -10.20637 -10.20340 -10.20225 -10.20154
 Alpha  occ. eigenvalues --  -10.20072  -8.15537  -6.12088  -6.11953  -6.11809
 Alpha  occ. eigenvalues --   -1.14770  -1.12725  -1.01712  -0.96591  -0.87880
 Alpha  occ. eigenvalues --   -0.87731  -0.85499  -0.81363  -0.78286  -0.76585
 Alpha  occ. eigenvalues --   -0.75798  -0.75598  -0.69441  -0.65267  -0.64002
 Alpha  occ. eigenvalues --   -0.62569  -0.61812  -0.60554  -0.58013  -0.55605
 Alpha  occ. eigenvalues --   -0.55387  -0.52525  -0.50696  -0.49185  -0.49018
 Alpha  occ. eigenvalues --   -0.48103  -0.47587  -0.46944  -0.45865  -0.45396
 Alpha  occ. eigenvalues --   -0.44930  -0.44087  -0.43641  -0.43044  -0.39935
 Alpha  occ. eigenvalues --   -0.39677  -0.38812  -0.38278  -0.37077  -0.36623
 Alpha  occ. eigenvalues --   -0.36421  -0.35473  -0.35404  -0.33255  -0.32409
 Alpha  occ. eigenvalues --   -0.31990  -0.30949  -0.30145  -0.27998  -0.26951
 Alpha  occ. eigenvalues --   -0.26423  -0.25722  -0.23727
 Alpha virt. eigenvalues --   -0.05432  -0.04121  -0.01860  -0.01243   0.02376
 Alpha virt. eigenvalues --    0.04625   0.06740   0.07117   0.07792   0.08446
 Alpha virt. eigenvalues --    0.09551   0.10958   0.11326   0.12696   0.13238

 Mulliken charges:
               1
     1  O   -0.553117
     2  S    1.218270
     3  N   -0.805969
     4  C    0.553089
     5  N   -0.255423
     6  O   -0.413129
     7  C    0.397580
     8  C    0.080221
     9  C   -0.173527
    10  C   -0.146013
    11  C   -0.127480
    12  C   -0.141792
    13  C   -0.170055
    14  C   -0.308051
    15  C   -0.167117
    16  C   -0.130890
    17  C   -0.138320
    18  C   -0.122139
    19  C   -0.134544
    20  C   -0.144348
    21  O   -0.535050
    22  H    0.398782
    23  H    0.152989
    24  H    0.152406
    25  H    0.151516
    26  H    0.152524
    27  H    0.163976
    28  H    0.181710
    29  H    0.198937
    30  H    0.160692
    31  H    0.159835
    32  H    0.160515
    33  H    0.183923
 Sum of Mulliken charges =   0.00000

 Dipole moment (field-independent basis, Debye):
    X=             -4.2734    Y=              3.8787    Z=              5.8143  Tot=              8.1923
 Quadrupole moment (field-independent basis, Debye-Ang):
   XX=           -107.2313   YY=           -123.3504   ZZ=           -124.0979
   XY=             17.5013   XZ=              6.5170   YZ=            -10.2514

 Normal termination of Gaussian 09 at Thu Aug  6 22:15:24 2020.
