 Gaussian 09, Revision D.01,

 -----------------
 #p b3lyp/6-31G(d)
 -----------------

 ----------------
 SM42.n.8.pdb.xyz
 ----------------
 Symbolic Z-matrix:
 Charge =  0 Multiplicity = 1

 SCF Done:  E(RB3LYP) =  -1312.06778450     A.U. after   16 cycles
 Normal termination of Gaussian 09 at Thu Aug  6 22:14:18 2020.
 Gaussian 09:  AM64L-G09RevD.01 24-Apr-2013

 ----------------------------------------------------------------------
 #p b3lyp/6-31G(d) scrf=(iefpcm,read,solvent=n-Octanol) geom=allcheck g
 uess=read
 ----------------------------------------------------------------------

 Structure from the checkpoint file:  "SM42.n.8.pdb.xyz.mst.n.o.chk"
 ----------------
 SM42.n.8.pdb.xyz
 ----------------
 Charge =  0 Multiplicity = 1

                         Standard orientation:
 ---------------------------------------------------------------------
 Center     Atomic      Atomic             Coordinates (Angstroms)
 Number     Number       Type             X           Y           Z
 ---------------------------------------------------------------------
      1          8           0        2.024984   -1.238201    1.886157
      2         16           0        2.396934   -1.341996    0.475646
      3          7           0        0.992880   -1.332412   -0.489867
      4          6           0       -0.195816   -0.685285   -0.163355
      5          7           0       -0.214052    0.406515    0.574687
      6          8           0       -1.565962    0.768562    0.644550
      7          6           0       -2.311093   -0.110735   -0.065912
      8          6           0       -3.751244    0.112807   -0.110259
      9          6           0       -4.577704   -0.753336   -0.843051
     10          6           0       -5.951378   -0.540778   -0.886274
     11          6           0       -6.517336    0.535820   -0.200345
     12          6           0       -5.700719    1.401904    0.530423
     13          6           0       -4.325079    1.194654    0.577764
     14          6           0       -1.493174   -1.064595   -0.605368
     15          6           0        3.282980    0.133256    0.003779
     16          6           0        2.822335    1.385031    0.417005
     17          6           0        3.555829    2.512843    0.057879
     18          6           0        4.730654    2.381727   -0.687533
     19          6           0        5.177665    1.121359   -1.086572
     20          6           0        4.451735   -0.018179   -0.743139
     21          8           0        3.131338   -2.507353   -0.024980
     22          1           0        0.914209   -2.189597   -1.026816
     23          1           0       -4.142570   -1.590034   -1.378006
     24          1           0       -6.581326   -1.216334   -1.455392
     25          1           0       -7.589048    0.699763   -0.234953
     26          1           0       -6.135726    2.239435    1.064243
     27          1           0       -3.686133    1.861679    1.143384
     28          1           0       -1.764147   -1.910959   -1.215758
     29          1           0        1.896298    1.463158    0.974261
     30          1           0        3.212797    3.494641    0.363510
     31          1           0        5.297712    3.265303   -0.958338
     32          1           0        6.090456    1.022350   -1.663284
     33          1           0        4.775932   -1.009202   -1.032986
 ---------------------------------------------------------------------

 SCF Done:  E(RB3LYP) =  -1312.09435652     A.U. after   11 cycles

 The electronic state is 1-A.
 Alpha  occ. eigenvalues --  -89.13106 -19.24170 -19.15909 -19.15842 -14.39309
 Alpha  occ. eigenvalues --  -14.38256 -10.28010 -10.27248 -10.23457 -10.21916
 Alpha  occ. eigenvalues --  -10.21481 -10.21151 -10.20914 -10.20744 -10.20698
 Alpha  occ. eigenvalues --  -10.20685 -10.20608 -10.20351 -10.20214 -10.20131
 Alpha  occ. eigenvalues --  -10.20071  -8.15578  -6.12130  -6.11995  -6.11838
 Alpha  occ. eigenvalues --   -1.14824  -1.12745  -1.01747  -0.96440  -0.87880
 Alpha  occ. eigenvalues --   -0.87714  -0.85500  -0.81374  -0.78344  -0.76550
 Alpha  occ. eigenvalues --   -0.75813  -0.75575  -0.69498  -0.65292  -0.63863
 Alpha  occ. eigenvalues --   -0.62545  -0.61661  -0.60515  -0.57992  -0.55601
 Alpha  occ. eigenvalues --   -0.54878  -0.52642  -0.50730  -0.49309  -0.48925
 Alpha  occ. eigenvalues --   -0.48157  -0.47576  -0.46990  -0.45800  -0.45462
 Alpha  occ. eigenvalues --   -0.45029  -0.44065  -0.43677  -0.43074  -0.39896
 Alpha  occ. eigenvalues --   -0.39607  -0.38914  -0.38237  -0.37303  -0.36492
 Alpha  occ. eigenvalues --   -0.36407  -0.35581  -0.35393  -0.33284  -0.32360
 Alpha  occ. eigenvalues --   -0.32018  -0.31232  -0.30142  -0.27910  -0.26910
 Alpha  occ. eigenvalues --   -0.26426  -0.25720  -0.23725
 Alpha virt. eigenvalues --   -0.05426  -0.03962  -0.01837  -0.01229   0.01918
 Alpha virt. eigenvalues --    0.04446   0.06402   0.07097   0.07818   0.08453
 Alpha virt. eigenvalues --    0.09771   0.11023   0.11356   0.12536   0.12834

 Mulliken charges:
               1
     1  O   -0.527750
     2  S    1.215892
     3  N   -0.821127
     4  C    0.559455
     5  N   -0.254283
     6  O   -0.411618
     7  C    0.393549
     8  C    0.081358
     9  C   -0.173109
    10  C   -0.145638
    11  C   -0.127493
    12  C   -0.141968
    13  C   -0.169984
    14  C   -0.308227
    15  C   -0.162241
    16  C   -0.137251
    17  C   -0.138520
    18  C   -0.122434
    19  C   -0.134118
    20  C   -0.144420
    21  O   -0.554147
    22  H    0.400948
    23  H    0.153045
    24  H    0.152433
    25  H    0.151512
    26  H    0.152573
    27  H    0.163738
    28  H    0.182438
    29  H    0.203070
    30  H    0.160347
    31  H    0.159321
    32  H    0.160283
    33  H    0.184369
 Sum of Mulliken charges =   0.00000

 Dipole moment (field-independent basis, Debye):
    X=             -3.3490    Y=              1.7027    Z=             -4.9595  Tot=              6.2218
 Quadrupole moment (field-independent basis, Debye-Ang):
   XX=            -94.3017   YY=           -119.2584   ZZ=           -130.6613
   XY=             16.1054   XZ=             -7.2004   YZ=              9.7241

 Normal termination of Gaussian 09 at Thu Aug  6 22:18:09 2020.
