 Gaussian 09, Revision D.01,

 -----------------
 #p b3lyp/6-31G(d)
 -----------------

 -----------------
 SM42.n.10.pdb.xyz
 -----------------
 Symbolic Z-matrix:
 Charge =  0 Multiplicity = 1

 SCF Done:  E(RB3LYP) =  -1312.06980492     A.U. after   16 cycles
 Normal termination of Gaussian 09 at Thu Aug  6 22:11:15 2020.
 Gaussian 09:  AM64L-G09RevD.01 24-Apr-2013

 ----------------------------------------------------------------------
 #p b3lyp/6-31G(d) scrf=(iefpcm,read,solvent=n-Octanol) geom=allcheck g
 uess=read
 ----------------------------------------------------------------------

 Structure from the checkpoint file:  "SM42.n.10.pdb.xyz.mst.n.o.chk"
 -----------------
 SM42.n.10.pdb.xyz
 -----------------
 Charge =  0 Multiplicity = 1

                         Standard orientation:
 ---------------------------------------------------------------------
 Center     Atomic      Atomic             Coordinates (Angstroms)
 Number     Number       Type             X           Y           Z
 ---------------------------------------------------------------------
      1          8           0        1.268252    1.394772    0.933850
      2         16           0        1.922864    0.083864    0.875978
      3          7           0        1.082368   -0.799982   -0.320507
      4          6           0       -0.318022   -0.873418   -0.283459
      5          7           0       -0.894476   -2.024589   -0.566521
      6          8           0       -2.266911   -1.747619   -0.547139
      7          6           0       -2.464415   -0.444122   -0.232575
      8          6           0       -3.843376    0.021673   -0.154434
      9          6           0       -4.907640   -0.855381   -0.412377
     10          6           0       -6.221535   -0.401270   -0.336178
     11          6           0       -6.487100    0.928581   -0.004348
     12          6           0       -5.431172    1.806109    0.254121
     13          6           0       -4.116781    1.356804    0.179553
     14          6           0       -1.254877    0.170254   -0.056693
     15          6           0        3.516703    0.213073    0.093182
     16          6           0        3.657872    1.012392   -1.043344
     17          6           0        4.916864    1.125499   -1.626422
     18          6           0        6.009047    0.452566   -1.071186
     19          6           0        5.851425   -0.336562    0.069140
     20          6           0        4.596278   -0.460209    0.663712
     21          8           0        2.075943   -0.701518    2.106258
     22          1           0        1.513342   -1.713736   -0.473126
     23          1           0       -4.694064   -1.885575   -0.669528
     24          1           0       -7.038378   -1.085395   -0.537108
     25          1           0       -7.512518    1.279766    0.054282
     26          1           0       -5.631645    2.839765    0.512412
     27          1           0       -3.298959    2.040034    0.381596
     28          1           0       -1.037702    1.191987    0.196610
     29          1           0        2.802286    1.530733   -1.458516
     30          1           0        5.046876    1.739031   -2.510073
     31          1           0        6.987174    0.545994   -1.529126
     32          1           0        6.702328   -0.853197    0.497883
     33          1           0        4.442278   -1.060260    1.552349
 ---------------------------------------------------------------------

 SCF Done:  E(RB3LYP) =  -1312.09511884     A.U. after   11 cycles

 The electronic state is 1-A.
 Alpha  occ. eigenvalues --  -89.13279 -19.24050 -19.16213 -19.16124 -14.39454
 Alpha  occ. eigenvalues --  -14.38295 -10.27676 -10.26941 -10.24007 -10.22214
 Alpha  occ. eigenvalues --  -10.22109 -10.21715 -10.21498 -10.21297 -10.21262
 Alpha  occ. eigenvalues --  -10.20423 -10.20198 -10.20141 -10.20088 -10.19997
 Alpha  occ. eigenvalues --  -10.19948  -8.15821  -6.12349  -6.12224  -6.12101
 Alpha  occ. eigenvalues --   -1.14686  -1.12913  -1.01825  -0.96667  -0.88545
 Alpha  occ. eigenvalues --   -0.87606  -0.85410  -0.81177  -0.78791  -0.77200
 Alpha  occ. eigenvalues --   -0.75670  -0.75398  -0.69772  -0.64969  -0.63287
 Alpha  occ. eigenvalues --   -0.63012  -0.61359  -0.59887  -0.59315  -0.56024
 Alpha  occ. eigenvalues --   -0.54982  -0.52514  -0.50430  -0.49487  -0.49194
 Alpha  occ. eigenvalues --   -0.48032  -0.47836  -0.46509  -0.46429  -0.45706
 Alpha  occ. eigenvalues --   -0.44795  -0.44678  -0.43416  -0.42625  -0.40306
 Alpha  occ. eigenvalues --   -0.39661  -0.39012  -0.38319  -0.37324  -0.36990
 Alpha  occ. eigenvalues --   -0.36343  -0.36093  -0.35268  -0.33488  -0.32792
 Alpha  occ. eigenvalues --   -0.31956  -0.31787  -0.29974  -0.28235  -0.27575
 Alpha  occ. eigenvalues --   -0.26374  -0.25966  -0.23543
 Alpha virt. eigenvalues --   -0.05301  -0.04817  -0.02417  -0.01110   0.01698
 Alpha virt. eigenvalues --    0.04475   0.06809   0.06959   0.07687   0.09037
 Alpha virt. eigenvalues --    0.09712   0.10555   0.11148   0.12389   0.13359

 Mulliken charges:
               1
     1  O   -0.554634
     2  S    1.207579
     3  N   -0.793853
     4  C    0.490184
     5  N   -0.255357
     6  O   -0.408491
     7  C    0.384019
     8  C    0.081995
     9  C   -0.171325
    10  C   -0.142059
    11  C   -0.128283
    12  C   -0.145645
    13  C   -0.174598
    14  C   -0.273957
    15  C   -0.176125
    16  C   -0.123950
    17  C   -0.132677
    18  C   -0.120223
    19  C   -0.131433
    20  C   -0.136315
    21  O   -0.517343
    22  H    0.388311
    23  H    0.162365
    24  H    0.151452
    25  H    0.150409
    26  H    0.152038
    27  H    0.154686
    28  H    0.194310
    29  H    0.183238
    30  H    0.165993
    31  H    0.164842
    32  H    0.165653
    33  H    0.189198
 Sum of Mulliken charges =   0.00000

 Dipole moment (field-independent basis, Debye):
    X=              2.6639    Y=              1.6705    Z=             -3.2569  Tot=              4.5271
 Quadrupole moment (field-independent basis, Debye-Ang):
   XX=            -72.2223   YY=           -126.9107   ZZ=           -132.5748
   XY=             -8.0084   XZ=            -10.6299   YZ=             -3.2208

 Normal termination of Gaussian 09 at Thu Aug  6 22:14:30 2020.
