 Gaussian 09, Revision D.01,

 -----------------
 #p b3lyp/6-31G(d)
 -----------------

 ----------------
 SM42.n.4.pdb.xyz
 ----------------
 Symbolic Z-matrix:
 Charge =  0 Multiplicity = 1

 SCF Done:  E(RB3LYP) =  -1312.06545951     A.U. after   16 cycles
 Normal termination of Gaussian 09 at Thu Aug  6 22:01:18 2020.
 Gaussian 09:  AM64L-G09RevD.01 24-Apr-2013

 ----------------------------------------------------------------------
 #p b3lyp/6-31G(d) scrf=(iefpcm,read,solvent=Water) geom=allcheck guess
 =read
 ----------------------------------------------------------------------

 Structure from the checkpoint file:  "SM42.n.4.pdb.xyz.mst.n.w.chk"
 ----------------
 SM42.n.4.pdb.xyz
 ----------------
 Charge =  0 Multiplicity = 1

                         Standard orientation:
 ---------------------------------------------------------------------
 Center     Atomic      Atomic             Coordinates (Angstroms)
 Number     Number       Type             X           Y           Z
 ---------------------------------------------------------------------
      1          8           0        3.590735   -2.111341    0.756308
      2         16           0        2.697761   -1.373032   -0.142718
      3          7           0        1.159399   -1.705341    0.480746
      4          6           0       -0.019145   -1.117451    0.025396
      5          7           0       -0.136820   -0.601560   -1.184397
      6          8           0       -1.466000   -0.150153   -1.245669
      7          6           0       -2.094414   -0.418924   -0.076510
      8          6           0       -3.493223   -0.022422    0.043643
      9          6           0       -4.207051   -0.310344    1.218349
     10          6           0       -5.540954    0.066873    1.336972
     11          6           0       -6.179348    0.733650    0.286437
     12          6           0       -5.474588    1.021686   -0.884173
     13          6           0       -4.138729    0.646962   -1.008794
     14          6           0       -1.221505   -1.033882    0.775371
     15          6           0        2.993237    0.375189    0.055352
     16          6           0        2.790563    1.227026   -1.031162
     17          6           0        3.019632    2.591952   -0.860997
     18          6           0        3.439698    3.084188    0.375537
     19          6           0        3.639946    2.215267    1.453492
     20          6           0        3.416640    0.849299    1.299780
     21          8           0        2.670027   -1.678372   -1.574356
     22          1           0        1.188866   -1.887996    1.482975
     23          1           0       -3.716906   -0.830162    2.034680
     24          1           0       -6.084737   -0.160342    2.247675
     25          1           0       -7.219701    1.025539    0.381252
     26          1           0       -5.964645    1.538576   -1.701693
     27          1           0       -3.589020    0.869815   -1.915042
     28          1           0       -1.392836   -1.374858    1.783558
     29          1           0        2.473466    0.823293   -1.983558
     30          1           0        2.871381    3.267258   -1.695326
     31          1           0        3.616019    4.146365    0.500371
     32          1           0        3.973802    2.600841    2.409806
     33          1           0        3.579435    0.162983    2.121934
 ---------------------------------------------------------------------

 SCF Done:  E(RB3LYP) =  -1312.08929974     A.U. after   11 cycles

 The electronic state is 1-A.
 Alpha  occ. eigenvalues --  -89.13538 -19.24236 -19.16304 -19.16274 -14.39469
 Alpha  occ. eigenvalues --  -14.38474 -10.28123 -10.27226 -10.23681 -10.21784
 Alpha  occ. eigenvalues --  -10.21709 -10.21570 -10.20914 -10.20749 -10.20674
 Alpha  occ. eigenvalues --  -10.20446 -10.20373 -10.20206 -10.19994 -10.19893
 Alpha  occ. eigenvalues --  -10.19852  -8.16006  -6.12535  -6.12433  -6.12278
 Alpha  occ. eigenvalues --   -1.14797  -1.13182  -1.02167  -0.96707  -0.87972
 Alpha  occ. eigenvalues --   -0.87653  -0.85514  -0.81304  -0.78382  -0.76658
 Alpha  occ. eigenvalues --   -0.75594  -0.75444  -0.69567  -0.65101  -0.63979
 Alpha  occ. eigenvalues --   -0.62572  -0.61735  -0.60335  -0.57939  -0.55421
 Alpha  occ. eigenvalues --   -0.55271  -0.52610  -0.50620  -0.49478  -0.48827
 Alpha  occ. eigenvalues --   -0.48164  -0.47783  -0.46713  -0.45884  -0.45587
 Alpha  occ. eigenvalues --   -0.44926  -0.44114  -0.43445  -0.42779  -0.39884
 Alpha  occ. eigenvalues --   -0.39860  -0.38775  -0.38206  -0.37256  -0.36590
 Alpha  occ. eigenvalues --   -0.36425  -0.35774  -0.35145  -0.33919  -0.33113
 Alpha  occ. eigenvalues --   -0.32463  -0.31312  -0.30121  -0.28098  -0.27094
 Alpha  occ. eigenvalues --   -0.26348  -0.25942  -0.23739
 Alpha virt. eigenvalues --   -0.05512  -0.04308  -0.01920  -0.01087   0.01897
 Alpha virt. eigenvalues --    0.04996   0.06459   0.07514   0.08205   0.08423
 Alpha virt. eigenvalues --    0.09762   0.10926   0.11444   0.12946   0.13131

 Mulliken charges:
               1
     1  O   -0.569568
     2  S    1.215491
     3  N   -0.796036
     4  C    0.532167
     5  N   -0.278989
     6  O   -0.420628
     7  C    0.401957
     8  C    0.079062
     9  C   -0.178763
    10  C   -0.153786
    11  C   -0.134057
    12  C   -0.149753
    13  C   -0.175784
    14  C   -0.301392
    15  C   -0.153562
    16  C   -0.131503
    17  C   -0.139666
    18  C   -0.124805
    19  C   -0.139220
    20  C   -0.142697
    21  O   -0.565442
    22  H    0.430140
    23  H    0.165414
    24  H    0.160673
    25  H    0.159582
    26  H    0.160259
    27  H    0.166062
    28  H    0.197130
    29  H    0.187410
    30  H    0.171139
    31  H    0.170611
    32  H    0.171647
    33  H    0.186909
 Sum of Mulliken charges =   0.00000

 Dipole moment (field-independent basis, Debye):
    X=             -5.0842    Y=              5.5681    Z=              6.6901  Tot=             10.0802
 Quadrupole moment (field-independent basis, Debye-Ang):
   XX=           -114.7766   YY=           -124.1771   ZZ=           -118.6994
   XY=             20.2000   XZ=              3.8717   YZ=            -10.2258

 Normal termination of Gaussian 09 at Thu Aug  6 22:04:47 2020.
