 Gaussian 09, Revision D.01,

 -----------------
 #p b3lyp/6-31G(d)
 -----------------

 ----------------
 SM42.n.8.pdb.xyz
 ----------------
 Symbolic Z-matrix:
 Charge =  0 Multiplicity = 1

 SCF Done:  E(RB3LYP) =  -1312.05902414     A.U. after   16 cycles
 Normal termination of Gaussian 09 at Thu Aug  6 22:01:05 2020.
 Gaussian 09:  AM64L-G09RevD.01 24-Apr-2013

 ----------------------------------------------------------------------
 #p b3lyp/6-31G(d) scrf=(iefpcm,read,solvent=Water) geom=allcheck guess
 =read
 ----------------------------------------------------------------------

 Structure from the checkpoint file:  "SM42.n.8.pdb.xyz.mst.n.w.chk"
 ----------------
 SM42.n.8.pdb.xyz
 ----------------
 Charge =  0 Multiplicity = 1

                         Standard orientation:
 ---------------------------------------------------------------------
 Center     Atomic      Atomic             Coordinates (Angstroms)
 Number     Number       Type             X           Y           Z
 ---------------------------------------------------------------------
      1          8           0       -2.139331   -2.040645   -0.737114
      2         16           0       -2.172701   -0.966634    0.263085
      3          7           0       -0.974089    0.167438   -0.183321
      4          6           0        0.381720   -0.178257   -0.157480
      5          7           0        0.798108   -1.421318   -0.309291
      6          8           0        2.199347   -1.331400   -0.270327
      7          6           0        2.570269   -0.038648   -0.104015
      8          6           0        3.999170    0.248281   -0.044503
      9          6           0        4.447445    1.571439    0.101658
     10          6           0        5.810315    1.845522    0.160169
     11          6           0        6.741227    0.806376    0.073609
     12          6           0        6.301362   -0.510619   -0.072011
     13          6           0        4.938829   -0.791869   -0.131751
     14          6           0        1.453568    0.745372   -0.023294
     15          6           0       -3.627386    0.035130    0.039208
     16          6           0       -4.094933    0.277642   -1.254553
     17          6           0       -5.245323    1.045630   -1.413934
     18          6           0       -5.911475    1.550861   -0.293573
     19          6           0       -5.433804    1.293262    0.992515
     20          6           0       -4.281849    0.527938    1.169317
     21          8           0       -2.055077   -1.330004    1.683626
     22          1           0       -1.163677    1.082828    0.227841
     23          1           0        3.729587    2.380999    0.166698
     24          1           0        6.147302    2.870278    0.273148
     25          1           0        7.803447    1.023354    0.119696
     26          1           0        7.018475   -1.321288   -0.140545
     27          1           0        4.595259   -1.812737   -0.243988
     28          1           0        1.387270    1.812294    0.112864
     29          1           0       -3.572923   -0.127020   -2.113680
     30          1           0       -5.623696    1.244799   -2.409652
     31          1           0       -6.807926    2.146795   -0.425348
     32          1           0       -5.957298    1.683662    1.857919
     33          1           0       -3.895075    0.307364    2.156302
 ---------------------------------------------------------------------

 SCF Done:  E(RB3LYP) =  -1312.08644228     A.U. after   12 cycles

 The electronic state is 1-A.
 Alpha  occ. eigenvalues --  -89.13433 -19.24194 -19.16308 -19.16079 -14.39350
 Alpha  occ. eigenvalues --  -14.38410 -10.28075 -10.27223 -10.23846 -10.21914
 Alpha  occ. eigenvalues --  -10.21849 -10.21776 -10.21085 -10.20872 -10.20853
 Alpha  occ. eigenvalues --  -10.20455 -10.20362 -10.20183 -10.19981 -10.19879
 Alpha  occ. eigenvalues --  -10.19834  -8.15954  -6.12482  -6.12354  -6.12240
 Alpha  occ. eigenvalues --   -1.14743  -1.12817  -1.01674  -0.96591  -0.88327
 Alpha  occ. eigenvalues --   -0.87600  -0.85544  -0.81311  -0.78550  -0.76845
 Alpha  occ. eigenvalues --   -0.75588  -0.75427  -0.69862  -0.65177  -0.63067
 Alpha  occ. eigenvalues --   -0.62743  -0.61522  -0.60314  -0.57510  -0.56148
 Alpha  occ. eigenvalues --   -0.55012  -0.52415  -0.50450  -0.49246  -0.48977
 Alpha  occ. eigenvalues --   -0.48040  -0.47799  -0.46715  -0.46091  -0.45724
 Alpha  occ. eigenvalues --   -0.44908  -0.44278  -0.43420  -0.42776  -0.39880
 Alpha  occ. eigenvalues --   -0.39618  -0.39060  -0.38211  -0.37760  -0.36606
 Alpha  occ. eigenvalues --   -0.36524  -0.35873  -0.35140  -0.33768  -0.33308
 Alpha  occ. eigenvalues --   -0.32052  -0.31031  -0.30099  -0.27937  -0.27268
 Alpha  occ. eigenvalues --   -0.26367  -0.25946  -0.23732
 Alpha virt. eigenvalues --   -0.05419  -0.04562  -0.02114  -0.01076   0.01695
 Alpha virt. eigenvalues --    0.04854   0.06088   0.07086   0.07819   0.08664
 Alpha virt. eigenvalues --    0.10468   0.10784   0.11329   0.12346   0.13545

 Mulliken charges:
               1
     1  O   -0.567015
     2  S    1.217006
     3  N   -0.805832
     4  C    0.522744
     5  N   -0.281017
     6  O   -0.418859
     7  C    0.400063
     8  C    0.078371
     9  C   -0.178625
    10  C   -0.153692
    11  C   -0.134178
    12  C   -0.149449
    13  C   -0.175781
    14  C   -0.297509
    15  C   -0.186483
    16  C   -0.129780
    17  C   -0.136890
    18  C   -0.122921
    19  C   -0.137238
    20  C   -0.130939
    21  O   -0.544705
    22  H    0.426248
    23  H    0.165311
    24  H    0.160566
    25  H    0.159478
    26  H    0.160219
    27  H    0.166229
    28  H    0.196436
    29  H    0.189666
    30  H    0.173475
    31  H    0.172359
    32  H    0.173000
    33  H    0.189742
 Sum of Mulliken charges =   0.00000

 Dipole moment (field-independent basis, Debye):
    X=             -0.8387    Y=             10.8123    Z=              0.0288  Tot=             10.8449
 Quadrupole moment (field-independent basis, Debye-Ang):
   XX=            -72.3359   YY=           -129.2644   ZZ=           -127.9100
   XY=            -14.0100   XZ=              3.0607   YZ=              1.9063

 Normal termination of Gaussian 09 at Thu Aug  6 22:04:39 2020.
