 Gaussian 09, Revision D.01,

 -----------------
 #p b3lyp/6-31G(d)
 -----------------

 ----------------
 SM42.n.3.pdb.xyz
 ----------------
 Symbolic Z-matrix:
 Charge =  0 Multiplicity = 1

 SCF Done:  E(RB3LYP) =  -1312.06934293     A.U. after   16 cycles
 Normal termination of Gaussian 09 at Thu Aug  6 22:01:22 2020.
 Gaussian 09:  AM64L-G09RevD.01 24-Apr-2013

 ----------------------------------------------------------------------
 #p b3lyp/6-31G(d) scrf=(iefpcm,read,solvent=Water) geom=allcheck guess
 =read
 ----------------------------------------------------------------------

 Structure from the checkpoint file:  "SM42.n.3.pdb.xyz.mst.n.w.chk"
 ----------------
 SM42.n.3.pdb.xyz
 ----------------
 Charge =  0 Multiplicity = 1

                         Standard orientation:
 ---------------------------------------------------------------------
 Center     Atomic      Atomic             Coordinates (Angstroms)
 Number     Number       Type             X           Y           Z
 ---------------------------------------------------------------------
      1          8           0        1.755942   -1.053695    1.950115
      2         16           0        2.431190   -1.183552    0.652692
      3          7           0        1.355752   -1.768606   -0.527371
      4          6           0       -0.021335   -1.547082   -0.438874
      5          7           0       -0.847246   -2.522073   -0.774010
      6          8           0       -2.126135   -1.956074   -0.667295
      7          6           0       -2.022530   -0.669914   -0.252271
      8          6           0       -3.260167    0.080153   -0.074949
      9          6           0       -3.222569    1.396141    0.414495
     10          6           0       -4.403162    2.114512    0.581264
     11          6           0       -5.632532    1.530167    0.263579
     12          6           0       -5.675890    0.221150   -0.221835
     13          6           0       -4.497536   -0.502612   -0.391911
     14          6           0       -0.701353   -0.350122   -0.095671
     15          6           0        2.833442    0.455167    0.076072
     16          6           0        3.431654    0.613613   -1.176759
     17          6           0        3.782269    1.896293   -1.589775
     18          6           0        3.540138    2.993574   -0.757809
     19          6           0        2.947621    2.816007    0.493305
     20          6           0        2.589660    1.537614    0.922152
     21          8           0        3.602317   -2.059757    0.518588
     22          1           0        1.614053   -2.718860   -0.798738
     23          1           0       -2.271440    1.852148    0.666193
     24          1           0       -4.364524    3.129591    0.959907
     25          1           0       -6.551412    2.091835    0.395762
     26          1           0       -6.627309   -0.237428   -0.469750
     27          1           0       -4.527899   -1.517152   -0.770081
     28          1           0       -0.278922    0.593985    0.202859
     29          1           0        3.613273   -0.242058   -1.815094
     30          1           0        4.242751    2.038905   -2.560448
     31          1           0        3.815619    3.989101   -1.086993
     32          1           0        2.763687    3.668624    1.137582
     33          1           0        2.130280    1.371128    1.888055
 ---------------------------------------------------------------------

 SCF Done:  E(RB3LYP) =  -1312.08867397     A.U. after   11 cycles

 The electronic state is 1-A.
 Alpha  occ. eigenvalues --  -89.13643 -19.24411 -19.16684 -19.16501 -14.39253
 Alpha  occ. eigenvalues --  -14.38687 -10.28068 -10.27341 -10.23913 -10.21891
 Alpha  occ. eigenvalues --  -10.21811 -10.21802 -10.21047 -10.20901 -10.20879
 Alpha  occ. eigenvalues --  -10.20597 -10.20421 -10.20229 -10.20015 -10.19911
 Alpha  occ. eigenvalues --  -10.19880  -8.16145  -6.12678  -6.12571  -6.12407
 Alpha  occ. eigenvalues --   -1.14957  -1.13239  -1.02264  -0.96636  -0.88232
 Alpha  occ. eigenvalues --   -0.87636  -0.85493  -0.81339  -0.78638  -0.76845
 Alpha  occ. eigenvalues --   -0.75621  -0.75463  -0.69676  -0.64856  -0.63953
 Alpha  occ. eigenvalues --   -0.62751  -0.61356  -0.59988  -0.59217  -0.55844
 Alpha  occ. eigenvalues --   -0.54757  -0.52657  -0.50323  -0.49707  -0.49128
 Alpha  occ. eigenvalues --   -0.48359  -0.47958  -0.46708  -0.46126  -0.45660
 Alpha  occ. eigenvalues --   -0.44908  -0.44288  -0.43414  -0.42668  -0.40558
 Alpha  occ. eigenvalues --   -0.39495  -0.38822  -0.38285  -0.37517  -0.36612
 Alpha  occ. eigenvalues --   -0.36298  -0.36126  -0.35191  -0.33841  -0.33021
 Alpha  occ. eigenvalues --   -0.32675  -0.32285  -0.30134  -0.28101  -0.27296
 Alpha  occ. eigenvalues --   -0.26446  -0.26108  -0.23748
 Alpha virt. eigenvalues --   -0.05459  -0.04566  -0.02179  -0.01133   0.01397
 Alpha virt. eigenvalues --    0.04387   0.06458   0.06933   0.07881   0.08882
 Alpha virt. eigenvalues --    0.09871   0.11281   0.11980   0.12149   0.13065

 Mulliken charges:
               1
     1  O   -0.557241
     2  S    1.227779
     3  N   -0.817052
     4  C    0.518829
     5  N   -0.283152
     6  O   -0.413903
     7  C    0.386555
     8  C    0.079889
     9  C   -0.178166
    10  C   -0.153467
    11  C   -0.133890
    12  C   -0.149626
    13  C   -0.175677
    14  C   -0.275501
    15  C   -0.157636
    16  C   -0.131259
    17  C   -0.137961
    18  C   -0.123504
    19  C   -0.136180
    20  C   -0.143335
    21  O   -0.566518
    22  H    0.423951
    23  H    0.163979
    24  H    0.161025
    25  H    0.159820
    26  H    0.160564
    27  H    0.166424
    28  H    0.188803
    29  H    0.187476
    30  H    0.173506
    31  H    0.172143
    32  H    0.173068
    33  H    0.190255
 Sum of Mulliken charges =   0.00000

 Dipole moment (field-independent basis, Debye):
    X=             -1.2993    Y=              7.9665    Z=             -2.7207  Tot=              8.5179
 Quadrupole moment (field-independent basis, Debye-Ang):
   XX=           -112.1669   YY=           -119.2902   ZZ=           -129.1119
   XY=              8.1562   XZ=            -13.5347   YZ=              5.7934

 Normal termination of Gaussian 09 at Thu Aug  6 22:04:55 2020.
