 Gaussian 09, Revision D.01,

 -----------------
 #p b3lyp/6-31G(d)
 -----------------

 ----------------
 SM42.n.2.pdb.xyz
 ----------------
 Symbolic Z-matrix:
 Charge =  0 Multiplicity = 1

 SCF Done:  E(RB3LYP) =  -1312.07229635     A.U. after   16 cycles
 Normal termination of Gaussian 09 at Thu Aug  6 22:12:06 2020.
 Gaussian 09:  AM64L-G09RevD.01 24-Apr-2013

 ----------------------------------------------------------------------
 #p b3lyp/6-31G(d) scrf=(iefpcm,read,solvent=n-Octanol) geom=allcheck g
 uess=read
 ----------------------------------------------------------------------

 Structure from the checkpoint file:  "SM42.n.2.pdb.xyz.mst.n.o.chk"
 ----------------
 SM42.n.2.pdb.xyz
 ----------------
 Charge =  0 Multiplicity = 1

                         Standard orientation:
 ---------------------------------------------------------------------
 Center     Atomic      Atomic             Coordinates (Angstroms)
 Number     Number       Type             X           Y           Z
 ---------------------------------------------------------------------
      1          8           0        3.543996   -2.168332   -0.412799
      2         16           0        2.381011   -1.301243   -0.595801
      3          7           0        1.323503   -1.764769    0.647203
      4          6           0        0.053602   -1.200010    0.793249
      5          7           0       -0.389085   -0.931985    2.005816
      6          8           0       -1.697047   -0.476130    1.811888
      7          6           0       -1.985732   -0.463526    0.487053
      8          6           0       -3.311904   -0.002538    0.096240
      9          6           0       -4.242954    0.394742    1.068580
     10          6           0       -5.507043    0.833418    0.686817
     11          6           0       -5.856216    0.882212   -0.664123
     12          6           0       -4.933469    0.488649   -1.635974
     13          6           0       -3.668085    0.048846   -1.260461
     14          6           0       -0.905588   -0.922056   -0.216108
     15          6           0        2.878777    0.381372   -0.278278
     16          6           0        4.002154    0.608886    0.519682
     17          6           0        4.376751    1.922494    0.789738
     18          6           0        3.632257    2.983147    0.268271
     19          6           0        2.514985    2.739050   -0.533115
     20          6           0        2.129089    1.429388   -0.814385
     21          8           0        1.588412   -1.319922   -1.826451
     22          1           0        1.813271   -1.928889    1.525934
     23          1           0       -3.965115    0.353351    2.115202
     24          1           0       -6.220822    1.137523    1.445278
     25          1           0       -6.843129    1.224284   -0.958853
     26          1           0       -5.198518    0.523927   -2.686844
     27          1           0       -2.953832   -0.255295   -2.016737
     28          1           0       -0.786004   -1.059955   -1.276360
     29          1           0        4.570867   -0.231415    0.898886
     30          1           0        5.249072    2.116724    1.401809
     31          1           0        3.929013    4.004167    0.481352
     32          1           0        1.947868    3.566100   -0.944002
     33          1           0        1.277595    1.217285   -1.448199
 ---------------------------------------------------------------------

 SCF Done:  E(RB3LYP) =  -1312.09743903     A.U. after   11 cycles

 The electronic state is 1-A.
 Alpha  occ. eigenvalues --  -89.13381 -19.24309 -19.16316 -19.16246 -14.39611
 Alpha  occ. eigenvalues --  -14.38565 -10.27835 -10.27206 -10.23937 -10.22073
 Alpha  occ. eigenvalues --  -10.22033 -10.21872 -10.21395 -10.21248 -10.21222
 Alpha  occ. eigenvalues --  -10.20571 -10.20415 -10.20332 -10.20207 -10.20116
 Alpha  occ. eigenvalues --  -10.20062  -8.15876  -6.12401  -6.12297  -6.12155
 Alpha  occ. eigenvalues --   -1.14972  -1.13232  -1.02316  -0.96849  -0.88374
 Alpha  occ. eigenvalues --   -0.87769  -0.85514  -0.81345  -0.78695  -0.77134
 Alpha  occ. eigenvalues --   -0.75801  -0.75568  -0.69413  -0.65137  -0.63932
 Alpha  occ. eigenvalues --   -0.63097  -0.61659  -0.60176  -0.59480  -0.56470
 Alpha  occ. eigenvalues --   -0.55099  -0.52585  -0.50513  -0.49815  -0.49223
 Alpha  occ. eigenvalues --   -0.48158  -0.48005  -0.46763  -0.46385  -0.45652
 Alpha  occ. eigenvalues --   -0.44914  -0.44658  -0.43557  -0.42818  -0.40594
 Alpha  occ. eigenvalues --   -0.39510  -0.39107  -0.38452  -0.37127  -0.36942
 Alpha  occ. eigenvalues --   -0.36461  -0.35578  -0.35399  -0.33789  -0.32709
 Alpha  occ. eigenvalues --   -0.32362  -0.32103  -0.30190  -0.28474  -0.27523
 Alpha  occ. eigenvalues --   -0.26520  -0.26169  -0.23742
 Alpha virt. eigenvalues --   -0.05586  -0.04702  -0.02436  -0.01224   0.01539
 Alpha virt. eigenvalues --    0.04499   0.06542   0.06868   0.08291   0.09176
 Alpha virt. eigenvalues --    0.09720   0.10555   0.12008   0.12223   0.12950

 Mulliken charges:
               1
     1  O   -0.539438
     2  S    1.196974
     3  N   -0.766831
     4  C    0.485958
     5  N   -0.251159
     6  O   -0.406623
     7  C    0.384895
     8  C    0.081358
     9  C   -0.170453
    10  C   -0.142009
    11  C   -0.127717
    12  C   -0.145640
    13  C   -0.173982
    14  C   -0.279010
    15  C   -0.145234
    16  C   -0.143709
    17  C   -0.130670
    18  C   -0.121509
    19  C   -0.131265
    20  C   -0.139827
    21  O   -0.555194
    22  H    0.392376
    23  H    0.163249
    24  H    0.152244
    25  H    0.151397
    26  H    0.152752
    27  H    0.154224
    28  H    0.195100
    29  H    0.184828
    30  H    0.165271
    31  H    0.164058
    32  H    0.164794
    33  H    0.180793
 Sum of Mulliken charges =   0.00000

 Dipole moment (field-independent basis, Debye):
    X=             -1.5974    Y=              5.5817    Z=              0.4291  Tot=              5.8216
 Quadrupole moment (field-independent basis, Debye-Ang):
   XX=           -103.8560   YY=           -125.0447   ZZ=           -128.5140
   XY=             11.3438   XZ=             15.4690   YZ=             -4.0632

 Normal termination of Gaussian 09 at Thu Aug  6 22:15:40 2020.
