 Gaussian 09, Revision D.01,

 -----------------
 #p b3lyp/6-31G(d)
 -----------------

 ----------------
 SM42.n.9.pdb.xyz
 ----------------
 Symbolic Z-matrix:
 Charge =  0 Multiplicity = 1

 SCF Done:  E(RB3LYP) =  -1312.06547791     A.U. after   16 cycles
 Normal termination of Gaussian 09 at Thu Aug  6 22:01:27 2020.
 Gaussian 09:  AM64L-G09RevD.01 24-Apr-2013

 ----------------------------------------------------------------------
 #p b3lyp/6-31G(d) scrf=(iefpcm,read,solvent=Water) geom=allcheck guess
 =read
 ----------------------------------------------------------------------

 Structure from the checkpoint file:  "SM42.n.9.pdb.xyz.mst.n.w.chk"
 ----------------
 SM42.n.9.pdb.xyz
 ----------------
 Charge =  0 Multiplicity = 1

                         Standard orientation:
 ---------------------------------------------------------------------
 Center     Atomic      Atomic             Coordinates (Angstroms)
 Number     Number       Type             X           Y           Z
 ---------------------------------------------------------------------
      1          8           0        3.578880   -2.135517    0.729688
      2         16           0        2.689287   -1.378412   -0.157229
      3          7           0        1.151566   -1.699864    0.470490
      4          6           0       -0.025809   -1.102445    0.027364
      5          7           0       -0.137450   -0.547994   -1.165467
      6          8           0       -1.466517   -0.099779   -1.223155
      7          6           0       -2.104076   -0.407835   -0.068179
      8          6           0       -3.505097   -0.018472    0.047531
      9          6           0       -4.227046   -0.314813    1.215120
     10          6           0       -5.563218    0.058555    1.325207
     11          6           0       -6.194386    0.730990    0.275082
     12          6           0       -5.480305    1.027755   -0.888777
     13          6           0       -4.144181    0.657294   -1.004656
     14          6           0       -1.236205   -1.047488    0.770290
     15          6           0        3.004948    0.363543    0.056391
     16          6           0        3.421739    0.823811    1.307819
     17          6           0        3.661229    2.185727    1.472612
     18          6           0        3.484419    3.063849    0.400412
     19          6           0        3.071587    2.587233   -0.845094
     20          6           0        2.826524    1.225761   -1.027055
     21          8           0        2.652522   -1.669876   -1.592435
     22          1           0        1.183520   -1.904428    1.468863
     23          1           0       -3.742351   -0.836305    2.033500
     24          1           0       -6.111767   -0.174513    2.231010
     25          1           0       -7.235719    1.020641    0.363532
     26          1           0       -5.965835    1.548706   -1.707250
     27          1           0       -3.587494    0.886229   -1.905694
     28          1           0       -1.412880   -1.424264    1.764254
     29          1           0        3.565462    0.130321    2.126782
     30          1           0        3.989576    2.558257    2.435943
     31          1           0        3.674643    4.122923    0.534861
     32          1           0        2.942145    3.270171   -1.677237
     33          1           0        2.513479    0.832440   -1.985233
 ---------------------------------------------------------------------

 SCF Done:  E(RB3LYP) =  -1312.08929305     A.U. after   11 cycles

 The electronic state is 1-A.
 Alpha  occ. eigenvalues --  -89.13555 -19.24219 -19.16293 -19.16271 -14.39479
 Alpha  occ. eigenvalues --  -14.38450 -10.28133 -10.27216 -10.23678 -10.21775
 Alpha  occ. eigenvalues --  -10.21706 -10.21582 -10.20909 -10.20733 -10.20695
 Alpha  occ. eigenvalues --  -10.20460 -10.20371 -10.20179 -10.19986 -10.19879
 Alpha  occ. eigenvalues --  -10.19843  -8.16018  -6.12549  -6.12446  -6.12291
 Alpha  occ. eigenvalues --   -1.14812  -1.13162  -1.02135  -0.96717  -0.87976
 Alpha  occ. eigenvalues --   -0.87658  -0.85503  -0.81295  -0.78401  -0.76652
 Alpha  occ. eigenvalues --   -0.75602  -0.75432  -0.69599  -0.65116  -0.63987
 Alpha  occ. eigenvalues --   -0.62578  -0.61726  -0.60333  -0.57942  -0.55428
 Alpha  occ. eigenvalues --   -0.55270  -0.52610  -0.50633  -0.49477  -0.48826
 Alpha  occ. eigenvalues --   -0.48167  -0.47790  -0.46688  -0.45887  -0.45581
 Alpha  occ. eigenvalues --   -0.44921  -0.44108  -0.43439  -0.42773  -0.39915
 Alpha  occ. eigenvalues --   -0.39847  -0.38776  -0.38197  -0.37254  -0.36575
 Alpha  occ. eigenvalues --   -0.36443  -0.35781  -0.35131  -0.33894  -0.33105
 Alpha  occ. eigenvalues --   -0.32442  -0.31296  -0.30122  -0.28094  -0.27086
 Alpha  occ. eigenvalues --   -0.26347  -0.25921  -0.23731
 Alpha virt. eigenvalues --   -0.05497  -0.04305  -0.01926  -0.01068   0.01953
 Alpha virt. eigenvalues --    0.04989   0.06458   0.07496   0.08142   0.08465
 Alpha virt. eigenvalues --    0.09777   0.10938   0.11456   0.12977   0.13136

 Mulliken charges:
               1
     1  O   -0.569836
     2  S    1.216760
     3  N   -0.797865
     4  C    0.534133
     5  N   -0.279226
     6  O   -0.420561
     7  C    0.402940
     8  C    0.077837
     9  C   -0.178905
    10  C   -0.153608
    11  C   -0.134155
    12  C   -0.149842
    13  C   -0.175335
    14  C   -0.301991
    15  C   -0.153078
    16  C   -0.142680
    17  C   -0.138839
    18  C   -0.124843
    19  C   -0.139740
    20  C   -0.131567
    21  O   -0.566121
    22  H    0.430592
    23  H    0.165323
    24  H    0.160568
    25  H    0.159533
    26  H    0.160142
    27  H    0.166165
    28  H    0.196752
    29  H    0.186805
    30  H    0.171589
    31  H    0.170533
    32  H    0.171321
    33  H    0.187200
 Sum of Mulliken charges =   0.00000

 Dipole moment (field-independent basis, Debye):
    X=             -5.0139    Y=              5.4075    Z=              6.7158  Tot=              9.9741
 Quadrupole moment (field-independent basis, Debye-Ang):
   XX=           -114.2704   YY=           -124.0821   ZZ=           -118.6887
   XY=             20.3804   XZ=              4.0073   YZ=            -10.2590

 Normal termination of Gaussian 09 at Thu Aug  6 22:04:58 2020.
