 Gaussian 09, Revision D.01,

 -----------------
 #p b3lyp/6-31G(d)
 -----------------

 ----------------
 SM42.n.9.pdb.xyz
 ----------------
 Symbolic Z-matrix:
 Charge =  0 Multiplicity = 1

 SCF Done:  E(RB3LYP) =  -1312.06697581     A.U. after   16 cycles
 Normal termination of Gaussian 09 at Thu Aug  6 22:14:39 2020.
 Gaussian 09:  AM64L-G09RevD.01 24-Apr-2013

 ----------------------------------------------------------------------
 #p b3lyp/6-31G(d) scrf=(iefpcm,read,solvent=n-Octanol) geom=allcheck g
 uess=read
 ----------------------------------------------------------------------

 Structure from the checkpoint file:  "SM42.n.9.pdb.xyz.mst.n.o.chk"
 ----------------
 SM42.n.9.pdb.xyz
 ----------------
 Charge =  0 Multiplicity = 1

                         Standard orientation:
 ---------------------------------------------------------------------
 Center     Atomic      Atomic             Coordinates (Angstroms)
 Number     Number       Type             X           Y           Z
 ---------------------------------------------------------------------
      1          8           0        3.432454   -2.311874    0.459762
      2         16           0        2.594333   -1.398503   -0.320389
      3          7           0        1.065680   -1.602707    0.378218
      4          6           0       -0.105540   -0.951199    0.013339
      5          7           0       -0.174271   -0.139805   -1.023081
      6          8           0       -1.511945    0.279918   -1.055150
      7          6           0       -2.195604   -0.290195   -0.036788
      8          6           0       -3.611587    0.037387    0.083903
      9          6           0       -4.380163   -0.509815    1.123052
     10          6           0       -5.730003   -0.194911    1.235910
     11          6           0       -6.329621    0.667078    0.314529
     12          6           0       -5.570648    1.213973   -0.722239
     13          6           0       -4.218754    0.902960   -0.839749
     14          6           0       -1.352515   -1.088019    0.684209
     15          6           0        3.114202    0.273429    0.033173
     16          6           0        4.025032    0.471985    1.072923
     17          6           0        4.454672    1.767534    1.350356
     18          6           0        3.973710    2.839488    0.596646
     19          6           0        3.063458    2.623124   -0.440548
     20          6           0        2.626619    1.333208   -0.735799
     21          8           0        2.446285   -1.548951   -1.764866
     22          1           0        1.110437   -1.984986    1.318244
     23          1           0       -3.918364   -1.178908    1.840505
     24          1           0       -6.315813   -0.622673    2.043150
     25          1           0       -7.382092    0.910723    0.404318
     26          1           0       -6.031593    1.883564   -1.439543
     27          1           0       -3.623139    1.322367   -1.641693
     28          1           0       -1.574393   -1.691429    1.549979
     29          1           0        4.390690   -0.380502    1.632954
     30          1           0        5.165976    1.938502    2.149887
     31          1           0        4.311538    3.846527    0.815089
     32          1           0        2.694166    3.458914   -1.024538
     33          1           0        1.909485    1.142624   -1.523573
 ---------------------------------------------------------------------

 SCF Done:  E(RB3LYP) =  -1312.09446412     A.U. after   11 cycles

 The electronic state is 1-A.
 Alpha  occ. eigenvalues --  -89.13107 -19.24068 -19.15737 -19.15677 -14.39445
 Alpha  occ. eigenvalues --  -14.38190 -10.28076 -10.27215 -10.23437 -10.21899
 Alpha  occ. eigenvalues --  -10.21537 -10.21273 -10.20978 -10.20777 -10.20722
 Alpha  occ. eigenvalues --  -10.20662 -10.20610 -10.20335 -10.20214 -10.20141
 Alpha  occ. eigenvalues --  -10.20069  -8.15544  -6.12095  -6.11960  -6.11815
 Alpha  occ. eigenvalues --   -1.14768  -1.12744  -1.01720  -0.96594  -0.87880
 Alpha  occ. eigenvalues --   -0.87728  -0.85510  -0.81361  -0.78274  -0.76585
 Alpha  occ. eigenvalues --   -0.75808  -0.75594  -0.69463  -0.65261  -0.64009
 Alpha  occ. eigenvalues --   -0.62553  -0.61814  -0.60554  -0.58014  -0.55602
 Alpha  occ. eigenvalues --   -0.55390  -0.52531  -0.50700  -0.49186  -0.49019
 Alpha  occ. eigenvalues --   -0.48101  -0.47579  -0.46931  -0.45851  -0.45400
 Alpha  occ. eigenvalues --   -0.44933  -0.44086  -0.43639  -0.43039  -0.39938
 Alpha  occ. eigenvalues --   -0.39665  -0.38820  -0.38280  -0.37079  -0.36611
 Alpha  occ. eigenvalues --   -0.36410  -0.35480  -0.35389  -0.33259  -0.32407
 Alpha  occ. eigenvalues --   -0.31987  -0.30955  -0.30138  -0.27988  -0.26954
 Alpha  occ. eigenvalues --   -0.26429  -0.25703  -0.23726
 Alpha virt. eigenvalues --   -0.05417  -0.04111  -0.01845  -0.01225   0.02403
 Alpha virt. eigenvalues --    0.04650   0.06742   0.07103   0.07794   0.08437
 Alpha virt. eigenvalues --    0.09576   0.10963   0.11344   0.12701   0.13272

 Mulliken charges:
               1
     1  O   -0.552556
     2  S    1.218568
     3  N   -0.807600
     4  C    0.555105
     5  N   -0.255826
     6  O   -0.413172
     7  C    0.397820
     8  C    0.080096
     9  C   -0.173061
    10  C   -0.145914
    11  C   -0.127531
    12  C   -0.141881
    13  C   -0.170299
    14  C   -0.308358
    15  C   -0.167191
    16  C   -0.144558
    17  C   -0.134051
    18  C   -0.122281
    19  C   -0.138741
    20  C   -0.130760
    21  O   -0.535366
    22  H    0.399167
    23  H    0.152771
    24  H    0.152355
    25  H    0.151430
    26  H    0.152474
    27  H    0.164029
    28  H    0.181791
    29  H    0.183567
    30  H    0.160451
    31  H    0.159794
    32  H    0.160581
    33  H    0.199150
 Sum of Mulliken charges =   0.00000

 Dipole moment (field-independent basis, Debye):
    X=             -4.2144    Y=              3.7738    Z=              5.8245  Tot=              8.1196
 Quadrupole moment (field-independent basis, Debye-Ang):
   XX=           -106.6741   YY=           -123.1802   ZZ=           -124.3827
   XY=             17.4815   XZ=              6.6497   YZ=            -10.3007

 Normal termination of Gaussian 09 at Thu Aug  6 22:18:01 2020.
