 Gaussian 09, Revision D.01,

 -----------------
 #p b3lyp/6-31G(d)
 -----------------

 ----------------
 SM42.n.6.pdb.xyz
 ----------------
 Symbolic Z-matrix:
 Charge =  0 Multiplicity = 1

 SCF Done:  E(RB3LYP) =  -1312.07237075     A.U. after   16 cycles
 Normal termination of Gaussian 09 at Thu Aug  6 22:13:15 2020.
 Gaussian 09:  AM64L-G09RevD.01 24-Apr-2013

 ----------------------------------------------------------------------
 #p b3lyp/6-31G(d) scrf=(iefpcm,read,solvent=n-Octanol) geom=allcheck g
 uess=read
 ----------------------------------------------------------------------

 Structure from the checkpoint file:  "SM42.n.6.pdb.xyz.mst.n.o.chk"
 ----------------
 SM42.n.6.pdb.xyz
 ----------------
 Charge =  0 Multiplicity = 1

                         Standard orientation:
 ---------------------------------------------------------------------
 Center     Atomic      Atomic             Coordinates (Angstroms)
 Number     Number       Type             X           Y           Z
 ---------------------------------------------------------------------
      1          8           0        3.539410   -2.185566   -0.359521
      2         16           0        2.377733   -1.320297   -0.564038
      3          7           0        1.317622   -1.753099    0.691190
      4          6           0        0.053291   -1.169561    0.822381
      5          7           0       -0.374242   -0.829789    2.022271
      6          8           0       -1.681978   -0.378064    1.816708
      7          6           0       -1.986411   -0.442140    0.496689
      8          6           0       -3.316580    0.000306    0.096171
      9          6           0       -3.692719   -0.023969   -1.256161
     10          6           0       -4.961383    0.398438   -1.637459
     11          6           0       -5.869055    0.850961   -0.676742
     12          6           0       -5.500931    0.878097    0.669883
     13          6           0       -4.232205    0.456091    1.056551
     14          6           0       -0.916200   -0.946731   -0.190130
     15          6           0        2.880402    0.368268   -0.284935
     16          6           0        4.010465    0.612383    0.497071
     17          6           0        4.392469    1.931235    0.730768
     18          6           0        3.649774    2.981525    0.187208
     19          6           0        2.524441    2.721350   -0.597748
     20          6           0        2.131717    1.407409   -0.842489
     21          8           0        1.586342   -1.366573   -1.793123
     22          1           0        1.809462   -1.883174    1.574008
     23          1           0       -2.991586   -0.374450   -2.005531
     24          1           0       -5.242647    0.375572   -2.684658
     25          1           0       -6.858840    1.180845   -0.977076
     26          1           0       -6.202713    1.227883    1.418940
     27          1           0       -3.940975    0.473832    2.100851
     28          1           0       -0.807645   -1.144483   -1.241997
     29          1           0        4.580055   -0.219240    0.895358
     30          1           0        5.271306    2.138051    1.330030
     31          1           0        3.952299    4.006434    0.371395
     32          1           0        1.956964    3.539753   -1.025425
     33          1           0        1.274280    1.183592   -1.464378
 ---------------------------------------------------------------------

 SCF Done:  E(RB3LYP) =  -1312.09748102     A.U. after   11 cycles

 The electronic state is 1-A.
 Alpha  occ. eigenvalues --  -89.13351 -19.24332 -19.16336 -19.16226 -14.39588
 Alpha  occ. eigenvalues --  -14.38612 -10.27812 -10.27222 -10.23939 -10.22064
 Alpha  occ. eigenvalues --  -10.22030 -10.21884 -10.21384 -10.21230 -10.21213
 Alpha  occ. eigenvalues --  -10.20578 -10.20422 -10.20335 -10.20209 -10.20110
 Alpha  occ. eigenvalues --  -10.20061  -8.15852  -6.12375  -6.12272  -6.12132
 Alpha  occ. eigenvalues --   -1.14986  -1.13225  -1.02321  -0.96815  -0.88363
 Alpha  occ. eigenvalues --   -0.87771  -0.85512  -0.81343  -0.78681  -0.77120
 Alpha  occ. eigenvalues --   -0.75802  -0.75572  -0.69370  -0.65133  -0.63904
 Alpha  occ. eigenvalues --   -0.63073  -0.61643  -0.60161  -0.59480  -0.56450
 Alpha  occ. eigenvalues --   -0.55098  -0.52578  -0.50494  -0.49813  -0.49220
 Alpha  occ. eigenvalues --   -0.48154  -0.47994  -0.46761  -0.46372  -0.45652
 Alpha  occ. eigenvalues --   -0.44912  -0.44632  -0.43546  -0.42828  -0.40599
 Alpha  occ. eigenvalues --   -0.39485  -0.39097  -0.38452  -0.37096  -0.36915
 Alpha  occ. eigenvalues --   -0.36449  -0.35556  -0.35397  -0.33790  -0.32730
 Alpha  occ. eigenvalues --   -0.32362  -0.32120  -0.30190  -0.28476  -0.27509
 Alpha  occ. eigenvalues --   -0.26543  -0.26199  -0.23759
 Alpha virt. eigenvalues --   -0.05602  -0.04694  -0.02418  -0.01220   0.01451
 Alpha virt. eigenvalues --    0.04491   0.06531   0.06897   0.08280   0.09165
 Alpha virt. eigenvalues --    0.09723   0.10646   0.12012   0.12207   0.12930

 Mulliken charges:
               1
     1  O   -0.539929
     2  S    1.196152
     3  N   -0.764898
     4  C    0.482258
     5  N   -0.249528
     6  O   -0.406418
     7  C    0.385245
     8  C    0.081140
     9  C   -0.173980
    10  C   -0.145451
    11  C   -0.127917
    12  C   -0.141634
    13  C   -0.171084
    14  C   -0.277485
    15  C   -0.145711
    16  C   -0.143812
    17  C   -0.130541
    18  C   -0.121452
    19  C   -0.130903
    20  C   -0.140054
    21  O   -0.553508
    22  H    0.391733
    23  H    0.154351
    24  H    0.152734
    25  H    0.151347
    26  H    0.152371
    27  H    0.163229
    28  H    0.194321
    29  H    0.184775
    30  H    0.165135
    31  H    0.164036
    32  H    0.164729
    33  H    0.180748
 Sum of Mulliken charges =   0.00000

 Dipole moment (field-independent basis, Debye):
    X=             -1.6426    Y=              5.5125    Z=              0.2928  Tot=              5.7595
 Quadrupole moment (field-independent basis, Debye-Ang):
   XX=           -103.6022   YY=           -125.1968   ZZ=           -128.3528
   XY=             11.9138   XZ=             15.1223   YZ=             -4.0504

 Normal termination of Gaussian 09 at Thu Aug  6 22:16:43 2020.
