 Gaussian 09, Revision D.01,

 -----------------
 #p b3lyp/6-31G(d)
 -----------------

 ----------------
 SM43.n.7.pdb.xyz
 ----------------
 Symbolic Z-matrix:
 Charge =  0 Multiplicity = 1

 SCF Done:  E(RB3LYP) =  -1214.98815159     A.U. after   16 cycles
 Normal termination of Gaussian 09 at Thu Aug  6 22:17:57 2020.
 Gaussian 09:  AM64L-G09RevD.01 24-Apr-2013

 ----------------------------------------------------------------------
 #p b3lyp/6-31G(d) scrf=(iefpcm,read,solvent=n-Octanol) geom=allcheck g
 uess=read
 ----------------------------------------------------------------------

 Structure from the checkpoint file:  "SM43.n.7.pdb.xyz.mst.n.o.chk"
 ----------------
 SM43.n.7.pdb.xyz
 ----------------
 Charge =  0 Multiplicity = 1

                         Standard orientation:
 ---------------------------------------------------------------------
 Center     Atomic      Atomic             Coordinates (Angstroms)
 Number     Number       Type             X           Y           Z
 ---------------------------------------------------------------------
      1          8           0       -3.979318   -0.180706   -1.526820
      2         16           0       -2.882542   -0.334657   -0.579000
      3          7           0       -1.831459    0.953722   -0.846028
      4          6           0       -0.477543    0.968134   -0.499097
      5          7           0        0.059682    2.117995   -0.135814
      6          8           0        1.417390    1.831784    0.048683
      7          6           0        1.642005    0.516636   -0.190106
      8          6           0        3.009527    0.029382   -0.035249
      9          6           0        4.042835    0.904703    0.335363
     10          6           0        5.342894    0.428910    0.481778
     11          6           0        5.627779   -0.920590    0.260662
     12          6           0        4.602443   -1.795302   -0.108509
     13          6           0        3.301681   -1.325443   -0.255457
     14          6           0        0.469110   -0.088562   -0.550909
     15          7           0       -3.517500    0.008990    0.940264
     16          6           0       -4.853944   -0.553493    1.186757
     17          6           0       -2.576177   -0.179608    2.051506
     18          8           0       -2.053871   -1.542213   -0.588796
     19          1           0       -2.295360    1.858356   -0.793402
     20          1           0        3.817009    1.950507    0.505315
     21          1           0        6.135213    1.112273    0.767821
     22          1           0        6.641640   -1.288365    0.374268
     23          1           0        4.816364   -2.844082   -0.282120
     24          1           0        2.509361   -2.008806   -0.541500
     25          1           0        0.280623   -1.115382   -0.808779
     26          1           0       -5.498156   -0.337780    0.337856
     27          1           0       -5.252090   -0.057548    2.074478
     28          1           0       -4.829425   -1.635119    1.366464
     29          1           0       -1.645531    0.350468    1.846521
     30          1           0       -2.358763   -1.236738    2.243915
     31          1           0       -3.032531    0.262246    2.939234
 ---------------------------------------------------------------------

 SCF Done:  E(RB3LYP) =  -1215.00826259     A.U. after   11 cycles

 The electronic state is 1-A.
 Alpha  occ. eigenvalues --  -89.14889 -19.24182 -19.16405 -19.16259 -14.39718
 Alpha  occ. eigenvalues --  -14.38447 -14.38393 -10.27975 -10.27083 -10.22903
 Alpha  occ. eigenvalues --  -10.22617 -10.21837 -10.20504 -10.20292 -10.20266
 Alpha  occ. eigenvalues --  -10.20159 -10.20065 -10.20026  -8.17082  -6.13592
 Alpha  occ. eigenvalues --   -6.13495  -6.13470  -1.14847  -1.14097  -1.02400
 Alpha  occ. eigenvalues --   -0.97067  -0.94845  -0.87713  -0.85531  -0.81236
 Alpha  occ. eigenvalues --   -0.75751  -0.75480  -0.73428  -0.72164  -0.65575
 Alpha  occ. eigenvalues --   -0.64172  -0.61794  -0.60158  -0.59327  -0.55434
 Alpha  occ. eigenvalues --   -0.54992  -0.52030  -0.50585  -0.49419  -0.48433
 Alpha  occ. eigenvalues --   -0.48094  -0.47180  -0.46535  -0.45511  -0.44753
 Alpha  occ. eigenvalues --   -0.43504  -0.42842  -0.42759  -0.41560  -0.40116
 Alpha  occ. eigenvalues --   -0.39741  -0.38712  -0.37416  -0.36434  -0.36170
 Alpha  occ. eigenvalues --   -0.35340  -0.34757  -0.33434  -0.32236  -0.32040
 Alpha  occ. eigenvalues --   -0.30054  -0.27669  -0.26335  -0.25681  -0.23634
 Alpha virt. eigenvalues --   -0.05344  -0.01175   0.01573   0.04394   0.05883
 Alpha virt. eigenvalues --    0.06657   0.08173   0.08955   0.09683   0.10423
 Alpha virt. eigenvalues --    0.10968   0.12171   0.12801   0.13226   0.14880

 Mulliken charges:
               1
     1  O   -0.530785
     2  S    1.298195
     3  N   -0.783494
     4  C    0.495685
     5  N   -0.258905
     6  O   -0.407467
     7  C    0.382290
     8  C    0.082542
     9  C   -0.171273
    10  C   -0.142241
    11  C   -0.128066
    12  C   -0.145641
    13  C   -0.174501
    14  C   -0.271944
    15  N   -0.512468
    16  C   -0.328177
    17  C   -0.333124
    18  O   -0.541427
    19  H    0.397779
    20  H    0.162388
    21  H    0.151814
    22  H    0.151090
    23  H    0.152333
    24  H    0.154479
    25  H    0.194401
    26  H    0.203290
    27  H    0.182901
    28  H    0.168335
    29  H    0.188493
    30  H    0.176785
    31  H    0.186712
 Sum of Mulliken charges =   0.00000

 Dipole moment (field-independent basis, Debye):
    X=              1.3379    Y=             -1.0720    Z=              4.0753  Tot=              4.4213
 Quadrupole moment (field-independent basis, Debye-Ang):
   XX=            -89.5228   YY=           -112.9520   ZZ=           -112.0457
   XY=             -7.3386   XZ=            -14.2373   YZ=             -1.7961

 Normal termination of Gaussian 09 at Thu Aug  6 22:20:40 2020.
