 Gaussian 09, Revision D.01,

 -----------------
 #p b3lyp/6-31G(d)
 -----------------

 ----------------
 SM43.n.1.pdb.xyz
 ----------------
 Symbolic Z-matrix:
 Charge =  0 Multiplicity = 1

 SCF Done:  E(RB3LYP) =  -1214.98756541     A.U. after   16 cycles
 Normal termination of Gaussian 09 at Thu Aug  6 22:14:01 2020.
 Gaussian 09:  AM64L-G09RevD.01 24-Apr-2013

 ----------------------------------------------------------------------
 #p b3lyp/6-31G(d) scrf=(iefpcm,read,solvent=n-Octanol) geom=allcheck g
 uess=read
 ----------------------------------------------------------------------

 Structure from the checkpoint file:  "SM43.n.1.pdb.xyz.mst.n.o.chk"
 ----------------
 SM43.n.1.pdb.xyz
 ----------------
 Charge =  0 Multiplicity = 1

                         Standard orientation:
 ---------------------------------------------------------------------
 Center     Atomic      Atomic             Coordinates (Angstroms)
 Number     Number       Type             X           Y           Z
 ---------------------------------------------------------------------
      1          8           0        2.710825   -0.281583    1.834552
      2         16           0        3.089580   -0.606685    0.462609
      3          7           0        1.698937   -1.012651   -0.461970
      4          6           0        0.451203   -0.418898   -0.283427
      5          7           0        0.335783    0.881848   -0.098916
      6          8           0       -1.041835    1.106632    0.008936
      7          6           0       -1.708612   -0.062710   -0.139214
      8          6           0       -3.163234   -0.021511   -0.065215
      9          6           0       -3.832269    1.189260    0.170171
     10          6           0       -5.222440    1.218979    0.240260
     11          6           0       -5.958868    0.043940    0.075068
     12          6           0       -5.298503   -1.164618   -0.159360
     13          6           0       -3.910056   -1.199369   -0.230289
     14          6           0       -0.808447   -1.074384   -0.326034
     15          7           0        3.743395    0.752947   -0.204927
     16          6           0        4.071840    0.674202   -1.630521
     17          6           0        3.295423    2.066478    0.280357
     18          8           0        3.969462   -1.734823    0.163950
     19          1           0        1.685654   -2.012378   -0.638239
     20          1           0       -3.256106    2.098087    0.298269
     21          1           0       -5.731013    2.158733    0.422514
     22          1           0       -7.042180    0.069658    0.130136
     23          1           0       -5.866423   -2.079743   -0.288063
     24          1           0       -3.399947   -2.139179   -0.414167
     25          1           0       -1.002010   -2.125673   -0.461685
     26          1           0        4.495090   -0.305100   -1.849629
     27          1           0        4.823719    1.436811   -1.840409
     28          1           0        3.195345    0.848531   -2.264929
     29          1           0        3.226439    2.037059    1.365813
     30          1           0        2.325521    2.348038   -0.138221
     31          1           0        4.061987    2.787075   -0.012714
 ---------------------------------------------------------------------

 SCF Done:  E(RB3LYP) =  -1215.00928689     A.U. after   11 cycles

 The electronic state is 1-A.
 Alpha  occ. eigenvalues --  -89.14299 -19.24215 -19.15842 -19.15554 -14.38857
 Alpha  occ. eigenvalues --  -14.38278 -14.38188 -10.27724 -10.27229 -10.22463
 Alpha  occ. eigenvalues --  -10.21906 -10.21700 -10.20640 -10.20624 -10.20356
 Alpha  occ. eigenvalues --  -10.20224 -10.20142 -10.20075  -8.16472  -6.12985
 Alpha  occ. eigenvalues --   -6.12885  -6.12865  -1.14874  -1.13507  -1.01863
 Alpha  occ. eigenvalues --   -0.96161  -0.94639  -0.87754  -0.85288  -0.81288
 Alpha  occ. eigenvalues --   -0.75816  -0.75595  -0.72940  -0.72045  -0.65230
 Alpha  occ. eigenvalues --   -0.64813  -0.61935  -0.60489  -0.57094  -0.55566
 Alpha  occ. eigenvalues --   -0.54006  -0.52072  -0.50604  -0.49078  -0.48464
 Alpha  occ. eigenvalues --   -0.48215  -0.47201  -0.46355  -0.45225  -0.44606
 Alpha  occ. eigenvalues --   -0.43719  -0.43122  -0.41900  -0.41204  -0.39941
 Alpha  occ. eigenvalues --   -0.39135  -0.38696  -0.37425  -0.36527  -0.35797
 Alpha  occ. eigenvalues --   -0.35409  -0.33944  -0.32840  -0.31731  -0.31388
 Alpha  occ. eigenvalues --   -0.30164  -0.27171  -0.26390  -0.25556  -0.23714
 Alpha virt. eigenvalues --   -0.05468  -0.01249   0.01426   0.04703   0.06318
 Alpha virt. eigenvalues --    0.07786   0.08212   0.08444   0.09354   0.10997
 Alpha virt. eigenvalues --    0.11273   0.12085   0.12898   0.14054   0.14765

 Mulliken charges:
               1
     1  O   -0.532786
     2  S    1.333402
     3  N   -0.823469
     4  C    0.536914
     5  N   -0.248087
     6  O   -0.409838
     7  C    0.391035
     8  C    0.082947
     9  C   -0.170855
    10  C   -0.141618
    11  C   -0.127776
    12  C   -0.145434
    13  C   -0.173592
    14  C   -0.304232
    15  N   -0.509751
    16  C   -0.325547
    17  C   -0.325485
    18  O   -0.563882
    19  H    0.394551
    20  H    0.163259
    21  H    0.152617
    22  H    0.151489
    23  H    0.152597
    24  H    0.153064
    25  H    0.181714
    26  H    0.195779
    27  H    0.182062
    28  H    0.173456
    29  H    0.194817
    30  H    0.191017
    31  H    0.171630
 Sum of Mulliken charges =   0.00000

 Dipole moment (field-independent basis, Debye):
    X=             -4.6197    Y=             -0.2168    Z=             -3.8773  Tot=              6.0351
 Quadrupole moment (field-independent basis, Debye-Ang):
   XX=            -99.3105   YY=           -101.1884   ZZ=           -116.1356
   XY=             14.0887   XZ=            -12.0601   YZ=              3.5429

 Normal termination of Gaussian 09 at Thu Aug  6 22:16:37 2020.
