 Gaussian 09, Revision D.01,

 -----------------
 #p b3lyp/6-31G(d)
 -----------------

 ----------------
 SM43.n.6.pdb.xyz
 ----------------
 Symbolic Z-matrix:
 Charge =  0 Multiplicity = 1

 SCF Done:  E(RB3LYP) =  -1214.98010508     A.U. after   15 cycles
 Normal termination of Gaussian 09 at Thu Aug  6 22:16:49 2020.
 Gaussian 09:  AM64L-G09RevD.01 24-Apr-2013

 ----------------------------------------------------------------------
 #p b3lyp/6-31G(d) scrf=(iefpcm,read,solvent=n-Octanol) geom=allcheck g
 uess=read
 ----------------------------------------------------------------------

 Structure from the checkpoint file:  "SM43.n.6.pdb.xyz.mst.n.o.chk"
 ----------------
 SM43.n.6.pdb.xyz
 ----------------
 Charge =  0 Multiplicity = 1

                         Standard orientation:
 ---------------------------------------------------------------------
 Center     Atomic      Atomic             Coordinates (Angstroms)
 Number     Number       Type             X           Y           Z
 ---------------------------------------------------------------------
      1          8           0       -3.099307   -1.036854   -1.463922
      2         16           0       -2.952246   -0.444151   -0.135720
      3          7           0       -1.592687    0.573570   -0.041446
      4          6           0       -0.288508    0.070561    0.000457
      5          7           0       -0.019978   -1.201016    0.206724
      6          8           0        1.381192   -1.267063    0.217605
      7          6           0        1.901012   -0.034792    0.009593
      8          6           0        3.353739    0.087904   -0.009920
      9          6           0        3.953918    1.337107   -0.228172
     10          6           0        5.339836    1.455323   -0.246066
     11          6           0        6.142973    0.330917   -0.047718
     12          6           0        5.551710   -0.915015    0.168857
     13          6           0        4.165709   -1.040106    0.188408
     14          6           0        0.882263    0.866313   -0.136707
     15          7           0       -4.081534    0.787286   -0.017938
     16          6           0       -5.336939    0.555340   -0.745516
     17          6           0       -4.249112    1.338455    1.334084
     18          8           0       -2.911765   -1.313379    1.038665
     19          1           0       -1.712332    1.390824   -0.635610
     20          1           0        3.334136    2.213559   -0.382575
     21          1           0        5.792736    2.426721   -0.414682
     22          1           0        7.223594    0.424513   -0.062304
     23          1           0        6.170774   -1.792670    0.323063
     24          1           0        3.701472   -2.004596    0.356142
     25          1           0        0.944774    1.928407   -0.305262
     26          1           0       -5.111793    0.164036   -1.734956
     27          1           0       -5.837556    1.519612   -0.844670
     28          1           0       -6.004703   -0.137743   -0.219370
     29          1           0       -3.267739    1.519194    1.773311
     30          1           0       -4.823873    0.671422    1.986852
     31          1           0       -4.774715    2.290585    1.237624
 ---------------------------------------------------------------------

 SCF Done:  E(RB3LYP) =  -1215.00499933     A.U. after   11 cycles

 The electronic state is 1-A.
 Alpha  occ. eigenvalues --  -89.14333 -19.23918 -19.15833 -19.15571 -14.39406
 Alpha  occ. eigenvalues --  -14.38297 -14.38016 -10.27793 -10.27088 -10.22624
 Alpha  occ. eigenvalues --  -10.22528 -10.21826 -10.20547 -10.20546 -10.20265
 Alpha  occ. eigenvalues --  -10.20153 -10.20081 -10.20007  -8.16549  -6.13055
 Alpha  occ. eigenvalues --   -6.12974  -6.12919  -1.14595  -1.13426  -1.01569
 Alpha  occ. eigenvalues --   -0.96836  -0.94691  -0.87731  -0.85437  -0.81224
 Alpha  occ. eigenvalues --   -0.75753  -0.75557  -0.73327  -0.72277  -0.65280
 Alpha  occ. eigenvalues --   -0.63816  -0.61873  -0.60462  -0.57374  -0.55683
 Alpha  occ. eigenvalues --   -0.54671  -0.51305  -0.50698  -0.49345  -0.48444
 Alpha  occ. eigenvalues --   -0.47872  -0.47259  -0.46322  -0.45341  -0.44811
 Alpha  occ. eigenvalues --   -0.43544  -0.42965  -0.41930  -0.41425  -0.40013
 Alpha  occ. eigenvalues --   -0.39522  -0.38875  -0.37724  -0.36593  -0.35703
 Alpha  occ. eigenvalues --   -0.35308  -0.34942  -0.32712  -0.31654  -0.30839
 Alpha  occ. eigenvalues --   -0.30040  -0.26709  -0.26384  -0.25866  -0.23638
 Alpha virt. eigenvalues --   -0.05288  -0.01171   0.02250   0.04578   0.06043
 Alpha virt. eigenvalues --    0.06834   0.07413   0.08349   0.10226   0.10376
 Alpha virt. eigenvalues --    0.11031   0.11760   0.12780   0.13548   0.14822

 Mulliken charges:
               1
     1  O   -0.523422
     2  S    1.308273
     3  N   -0.803408
     4  C    0.525226
     5  N   -0.242595
     6  O   -0.412920
     7  C    0.395096
     8  C    0.080827
     9  C   -0.173503
    10  C   -0.145961
    11  C   -0.127492
    12  C   -0.142130
    13  C   -0.170255
    14  C   -0.301797
    15  N   -0.539265
    16  C   -0.323832
    17  C   -0.319626
    18  O   -0.528741
    19  H    0.393872
    20  H    0.151773
    21  H    0.151752
    22  H    0.151106
    23  H    0.152228
    24  H    0.164144
    25  H    0.179259
    26  H    0.203136
    27  H    0.181088
    28  H    0.168236
    29  H    0.193114
    30  H    0.174536
    31  H    0.181281
 Sum of Mulliken charges =   0.00000

 Dipole moment (field-independent basis, Debye):
    X=              1.0366    Y=              8.0275    Z=             -0.4281  Tot=              8.1054
 Quadrupole moment (field-independent basis, Debye-Ang):
   XX=            -72.9094   YY=           -108.2816   ZZ=           -116.3471
   XY=            -14.1411   XZ=             -1.9335   YZ=             -1.2520

 Normal termination of Gaussian 09 at Thu Aug  6 22:19:16 2020.
