 Gaussian 09, Revision D.01,

 -----------------
 #p b3lyp/6-31G(d)
 -----------------

 -----------------
 SM43.n.10.pdb.xyz
 -----------------
 Symbolic Z-matrix:
 Charge =  0 Multiplicity = 1

 SCF Done:  E(RB3LYP) =  -1214.98755145     A.U. after   16 cycles
 Normal termination of Gaussian 09 at Thu Aug  6 22:13:31 2020.
 Gaussian 09:  AM64L-G09RevD.01 24-Apr-2013

 ----------------------------------------------------------------------
 #p b3lyp/6-31G(d) scrf=(iefpcm,read,solvent=n-Octanol) geom=allcheck g
 uess=read
 ----------------------------------------------------------------------

 Structure from the checkpoint file:  "SM43.n.10.pdb.xyz.mst.n.o.chk"
 -----------------
 SM43.n.10.pdb.xyz
 -----------------
 Charge =  0 Multiplicity = 1

                         Standard orientation:
 ---------------------------------------------------------------------
 Center     Atomic      Atomic             Coordinates (Angstroms)
 Number     Number       Type             X           Y           Z
 ---------------------------------------------------------------------
      1          8           0        2.725061   -0.287862    1.835382
      2         16           0        3.094856   -0.607487    0.459348
      3          7           0        1.700465   -1.019188   -0.455708
      4          6           0        0.452405   -0.425086   -0.278263
      5          7           0        0.337096    0.876672   -0.096571
      6          8           0       -1.040727    1.101159    0.011158
      7          6           0       -1.707568   -0.067937   -0.135905
      8          6           0       -3.162679   -0.024716   -0.063144
      9          6           0       -3.911528   -1.200232   -0.231170
     10          6           0       -5.300972   -1.159882   -0.162115
     11          6           0       -5.957599    0.049063    0.073925
     12          6           0       -5.217596    1.221940    0.241063
     13          6           0       -3.827225    1.188843    0.173891
     14          6           0       -0.807503   -1.081016   -0.320397
     15          7           0        3.733933    0.757877   -0.210790
     16          6           0        4.042692    0.691117   -1.641109
     17          6           0        3.291237    2.067269    0.290335
     18          8           0        3.978411   -1.729713    0.151102
     19          1           0        1.687556   -2.019395   -0.631105
     20          1           0       -3.404788   -2.140620   -0.415080
     21          1           0       -5.870575   -2.073598   -0.292238
     22          1           0       -7.040080    0.078353    0.127022
     23          1           0       -5.723435    2.163376    0.425279
     24          1           0       -3.246897    2.094382    0.303679
     25          1           0       -1.000793   -2.132171   -0.454114
     26          1           0        4.470988   -0.282162   -1.873760
     27          1           0        4.785757    1.461475   -1.854389
     28          1           0        3.155451    0.864267   -2.261609
     29          1           0        3.242389    2.032889    1.377127
     30          1           0        2.313011    2.348785   -0.109695
     31          1           0        4.049326    2.791815   -0.013009
 ---------------------------------------------------------------------

 SCF Done:  E(RB3LYP) =  -1215.00928055     A.U. after   11 cycles

 The electronic state is 1-A.
 Alpha  occ. eigenvalues --  -89.14303 -19.24219 -19.15833 -19.15545 -14.38858
 Alpha  occ. eigenvalues --  -14.38286 -14.38175 -10.27743 -10.27240 -10.22471
 Alpha  occ. eigenvalues --  -10.21907 -10.21683 -10.20651 -10.20622 -10.20355
 Alpha  occ. eigenvalues --  -10.20214 -10.20139 -10.20084  -8.16472  -6.12986
 Alpha  occ. eigenvalues --   -6.12885  -6.12864  -1.14875  -1.13498  -1.01851
 Alpha  occ. eigenvalues --   -0.96153  -0.94625  -0.87752  -0.85282  -0.81278
 Alpha  occ. eigenvalues --   -0.75811  -0.75599  -0.72925  -0.72055  -0.65231
 Alpha  occ. eigenvalues --   -0.64817  -0.61934  -0.60494  -0.57088  -0.55559
 Alpha  occ. eigenvalues --   -0.53999  -0.52071  -0.50607  -0.49075  -0.48466
 Alpha  occ. eigenvalues --   -0.48212  -0.47196  -0.46351  -0.45223  -0.44602
 Alpha  occ. eigenvalues --   -0.43723  -0.43126  -0.41910  -0.41191  -0.39943
 Alpha  occ. eigenvalues --   -0.39135  -0.38694  -0.37424  -0.36523  -0.35784
 Alpha  occ. eigenvalues --   -0.35425  -0.33940  -0.32832  -0.31734  -0.31390
 Alpha  occ. eigenvalues --   -0.30161  -0.27150  -0.26381  -0.25541  -0.23719
 Alpha virt. eigenvalues --   -0.05466  -0.01263   0.01438   0.04707   0.06329
 Alpha virt. eigenvalues --    0.07772   0.08205   0.08461   0.09346   0.11001
 Alpha virt. eigenvalues --    0.11289   0.12083   0.12898   0.14024   0.14775

 Mulliken charges:
               1
     1  O   -0.532622
     2  S    1.332689
     3  N   -0.823640
     4  C    0.537438
     5  N   -0.248446
     6  O   -0.409594
     7  C    0.391169
     8  C    0.081832
     9  C   -0.173201
    10  C   -0.145678
    11  C   -0.127200
    12  C   -0.142208
    13  C   -0.170056
    14  C   -0.304421
    15  N   -0.510054
    16  C   -0.324962
    17  C   -0.325944
    18  O   -0.563237
    19  H    0.394645
    20  H    0.153176
    21  H    0.152458
    22  H    0.151562
    23  H    0.152516
    24  H    0.163577
    25  H    0.181693
    26  H    0.195593
    27  H    0.182011
    28  H    0.173406
    29  H    0.194751
    30  H    0.191299
    31  H    0.171448
 Sum of Mulliken charges =   0.00000

 Dipole moment (field-independent basis, Debye):
    X=             -4.6717    Y=             -0.2078    Z=             -3.8519  Tot=              6.0584
 Quadrupole moment (field-independent basis, Debye-Ang):
   XX=            -99.7060   YY=           -101.0873   ZZ=           -116.0994
   XY=             14.1229   XZ=            -11.9587   YZ=              3.5054

 Normal termination of Gaussian 09 at Thu Aug  6 22:16:07 2020.
