 Gaussian 09, Revision D.01,

 -----------------
 #p b3lyp/6-31G(d)
 -----------------

 ----------------
 SM43.n.8.pdb.xyz
 ----------------
 Symbolic Z-matrix:
 Charge =  0 Multiplicity = 1

 SCF Done:  E(RB3LYP) =  -1214.98632846     A.U. after   15 cycles
 Normal termination of Gaussian 09 at Thu Aug  6 21:59:45 2020.
 Gaussian 09:  AM64L-G09RevD.01 24-Apr-2013

 ----------------------------------------------------------------------
 #p b3lyp/6-31G(d) scrf=(iefpcm,read,solvent=Water) geom=allcheck guess
 =read
 ----------------------------------------------------------------------

 Structure from the checkpoint file:  "SM43.n.8.pdb.xyz.mst.n.w.chk"
 ----------------
 SM43.n.8.pdb.xyz
 ----------------
 Charge =  0 Multiplicity = 1

                         Standard orientation:
 ---------------------------------------------------------------------
 Center     Atomic      Atomic             Coordinates (Angstroms)
 Number     Number       Type             X           Y           Z
 ---------------------------------------------------------------------
      1          8           0       -2.742886    0.053761   -1.818881
      2         16           0       -3.089273   -0.523010   -0.520563
      3          7           0       -1.672377   -0.986677    0.311240
      4          6           0       -0.427836   -0.387570    0.142351
      5          7           0       -0.296119    0.900436   -0.112016
      6          8           0        1.090997    1.113196   -0.168294
      7          6           0        1.740352   -0.052570    0.068740
      8          6           0        3.198251   -0.023168    0.056171
      9          6           0        3.928294   -1.197935    0.301108
     10          6           0        5.319346   -1.173433    0.290647
     11          6           0        5.998853    0.021273    0.037703
     12          6           0        5.278941    1.193071   -0.205983
     13          6           0        3.886422    1.173897   -0.197385
     14          6           0        0.825605   -1.048046    0.272464
     15          7           0       -3.848033    0.656469    0.357703
     16          6           0       -4.200965    0.293155    1.737405
     17          6           0       -3.424022    2.053259    0.170319
     18          8           0       -3.909360   -1.732213   -0.432920
     19          1           0       -1.650458   -1.995317    0.448015
     20          1           0        3.405106   -2.127239    0.499069
     21          1           0        5.873958   -2.085562    0.481028
     22          1           0        7.083051    0.038644    0.029939
     23          1           0        5.801023    2.123154   -0.403532
     24          1           0        3.325566    2.081696   -0.386643
     25          1           0        0.999497   -2.091419    0.477443
     26          1           0       -4.598068   -0.720193    1.755822
     27          1           0       -4.980230    0.982363    2.068041
     28          1           0       -3.342541    0.368386    2.413431
     29          1           0       -3.255325    2.239823   -0.887616
     30          1           0       -2.519591    2.291263    0.737742
     31          1           0       -4.247378    2.681422    0.517309
 ---------------------------------------------------------------------

 SCF Done:  E(RB3LYP) =  -1215.00608853     A.U. after   11 cycles

 The electronic state is 1-A.
 Alpha  occ. eigenvalues --  -89.14892 -19.24168 -19.16445 -19.16167 -14.39010
 Alpha  occ. eigenvalues --  -14.38480 -14.38308 -10.27908 -10.27152 -10.22239
 Alpha  occ. eigenvalues --  -10.21960 -10.21744 -10.20391 -10.20341 -10.20170
 Alpha  occ. eigenvalues --  -10.19959 -10.19861 -10.19830  -8.17052  -6.13561
 Alpha  occ. eigenvalues --   -6.13473  -6.13446  -1.14722  -1.13989  -1.02399
 Alpha  occ. eigenvalues --   -0.96315  -0.94782  -0.87606  -0.85301  -0.81114
 Alpha  occ. eigenvalues --   -0.75575  -0.75400  -0.72882  -0.72189  -0.65131
 Alpha  occ. eigenvalues --   -0.64973  -0.61846  -0.60258  -0.57023  -0.55309
 Alpha  occ. eigenvalues --   -0.54102  -0.52343  -0.50596  -0.49160  -0.48369
 Alpha  occ. eigenvalues --   -0.48177  -0.47006  -0.46301  -0.45137  -0.44828
 Alpha  occ. eigenvalues --   -0.43446  -0.42793  -0.42014  -0.41007  -0.39840
 Alpha  occ. eigenvalues --   -0.39126  -0.38819  -0.37542  -0.36759  -0.36069
 Alpha  occ. eigenvalues --   -0.35121  -0.34222  -0.33515  -0.32362  -0.31630
 Alpha  occ. eigenvalues --   -0.30047  -0.27643  -0.26254  -0.25496  -0.23652
 Alpha virt. eigenvalues --   -0.05338  -0.01068   0.01759   0.04417   0.06478
 Alpha virt. eigenvalues --    0.07388   0.08041   0.08478   0.09492   0.10866
 Alpha virt. eigenvalues --    0.11621   0.12057   0.13355   0.14230   0.15248

 Mulliken charges:
               1
     1  O   -0.556734
     2  S    1.342657
     3  N   -0.823969
     4  C    0.538398
     5  N   -0.280590
     6  O   -0.419987
     7  C    0.399159
     8  C    0.079172
     9  C   -0.179367
    10  C   -0.153336
    11  C   -0.134678
    12  C   -0.149530
    13  C   -0.176534
    14  C   -0.301273
    15  N   -0.513865
    16  C   -0.329097
    17  C   -0.322028
    18  O   -0.580421
    19  H    0.427170
    20  H    0.165135
    21  H    0.160483
    22  H    0.159201
    23  H    0.160070
    24  H    0.165708
    25  H    0.195939
    26  H    0.197475
    27  H    0.191272
    28  H    0.177501
    29  H    0.196905
    30  H    0.179613
    31  H    0.185552
 Sum of Mulliken charges =   0.00000

 Dipole moment (field-independent basis, Debye):
    X=              4.5264    Y=             -1.3526    Z=              5.4023  Tot=              7.1765
 Quadrupole moment (field-independent basis, Debye-Ang):
   XX=            -96.8196   YY=           -100.7887   ZZ=           -116.1139
   XY=            -13.0210   XZ=            -16.0308   YZ=             -2.6990

 Normal termination of Gaussian 09 at Thu Aug  6 22:02:32 2020.
