 Gaussian 09, Revision D.01,

 -----------------
 #p b3lyp/6-31G(d)
 -----------------

 ----------------
 SM43.n.9.pdb.xyz
 ----------------
 Symbolic Z-matrix:
 Charge =  0 Multiplicity = 1

 SCF Done:  E(RB3LYP) =  -1214.98363525     A.U. after   16 cycles
 Normal termination of Gaussian 09 at Thu Aug  6 22:00:18 2020.
 Gaussian 09:  AM64L-G09RevD.01 24-Apr-2013

 ----------------------------------------------------------------------
 #p b3lyp/6-31G(d) scrf=(iefpcm,read,solvent=Water) geom=allcheck guess
 =read
 ----------------------------------------------------------------------

 Structure from the checkpoint file:  "SM43.n.9.pdb.xyz.mst.n.w.chk"
 ----------------
 SM43.n.9.pdb.xyz
 ----------------
 Charge =  0 Multiplicity = 1

                         Standard orientation:
 ---------------------------------------------------------------------
 Center     Atomic      Atomic             Coordinates (Angstroms)
 Number     Number       Type             X           Y           Z
 ---------------------------------------------------------------------
      1          8           0       -2.867134    0.102729   -1.802719
      2         16           0       -3.064883   -0.503815   -0.484709
      3          7           0       -1.626527   -1.073181    0.180068
      4          6           0       -0.395455   -0.432878    0.051677
      5          7           0       -0.288079    0.864604   -0.165486
      6          8           0        1.096770    1.102432   -0.191448
      7          6           0        1.765488   -0.056972    0.019155
      8          6           0        3.223800    0.000381    0.030900
      9          6           0        3.892921    1.214735   -0.187586
     10          6           0        5.285399    1.258646   -0.173364
     11          6           0        6.023315    0.095255    0.056645
     12          6           0        5.360975   -1.116367    0.274392
     13          6           0        3.971081   -1.166206    0.261950
     14          6           0        0.866746   -1.074948    0.179032
     15          7           0       -3.405395    0.736424    0.575783
     16          6           0       -4.276045    1.799813    0.047581
     17          6           0       -3.728338    0.307800    1.945675
     18          8           0       -3.966930   -1.655613   -0.362961
     19          1           0       -1.594136   -2.091276    0.177266
     20          1           0        3.318779    2.116451   -0.365730
     21          1           0        5.792554    2.202079   -0.342872
     22          1           0        7.106301    0.132129    0.066922
     23          1           0        5.928999   -2.022887    0.454403
     24          1           0        3.462434   -2.108838    0.432919
     25          1           0        1.055336   -2.120724    0.355543
     26          1           0       -3.924008    2.101329   -0.936919
     27          1           0       -4.193789    2.646485    0.730738
     28          1           0       -5.326161    1.490971   -0.010677
     29          1           0       -2.992404   -0.424228    2.276598
     30          1           0       -4.735593   -0.117057    2.020745
     31          1           0       -3.661151    1.189755    2.584538
 ---------------------------------------------------------------------

 SCF Done:  E(RB3LYP) =  -1215.00569799     A.U. after   11 cycles

 The electronic state is 1-A.
 Alpha  occ. eigenvalues --  -89.14855 -19.24100 -19.16273 -19.16140 -14.39426
 Alpha  occ. eigenvalues --  -14.38298 -14.38160 -10.28003 -10.27152 -10.22138
 Alpha  occ. eigenvalues --  -10.22110 -10.21751 -10.20402 -10.20331 -10.20172
 Alpha  occ. eigenvalues --  -10.19957 -10.19861 -10.19831  -8.17026  -6.13544
 Alpha  occ. eigenvalues --   -6.13441  -6.13409  -1.14666  -1.13835  -1.02000
 Alpha  occ. eigenvalues --   -0.96883  -0.94536  -0.87641  -0.85434  -0.81177
 Alpha  occ. eigenvalues --   -0.75571  -0.75457  -0.72974  -0.72182  -0.65013
 Alpha  occ. eigenvalues --   -0.64832  -0.61764  -0.60256  -0.57144  -0.55337
 Alpha  occ. eigenvalues --   -0.53983  -0.52470  -0.50581  -0.48957  -0.48506
 Alpha  occ. eigenvalues --   -0.48072  -0.46917  -0.46127  -0.45130  -0.44892
 Alpha  occ. eigenvalues --   -0.43414  -0.42745  -0.41994  -0.40909  -0.39768
 Alpha  occ. eigenvalues --   -0.39494  -0.38679  -0.37671  -0.36472  -0.36063
 Alpha  occ. eigenvalues --   -0.35122  -0.35105  -0.33320  -0.32394  -0.31518
 Alpha  occ. eigenvalues --   -0.30038  -0.26778  -0.26225  -0.25798  -0.23668
 Alpha virt. eigenvalues --   -0.05310  -0.01063   0.01970   0.05203   0.06389
 Alpha virt. eigenvalues --    0.06991   0.07417   0.08591   0.09660   0.11067
 Alpha virt. eigenvalues --    0.11367   0.12389   0.13408   0.14052   0.15249

 Mulliken charges:
               1
     1  O   -0.560949
     2  S    1.345270
     3  N   -0.823644
     4  C    0.541677
     5  N   -0.281853
     6  O   -0.421283
     7  C    0.400052
     8  C    0.078766
     9  C   -0.176407
    10  C   -0.149841
    11  C   -0.134427
    12  C   -0.153659
    13  C   -0.178982
    14  C   -0.300671
    15  N   -0.528103
    16  C   -0.324239
    17  C   -0.326028
    18  O   -0.563353
    19  H    0.430987
    20  H    0.165811
    21  H    0.159981
    22  H    0.159294
    23  H    0.160373
    24  H    0.165150
    25  H    0.196121
    26  H    0.199096
    27  H    0.188507
    28  H    0.173048
    29  H    0.194831
    30  H    0.175012
    31  H    0.189463
 Sum of Mulliken charges =   0.00000

 Dipole moment (field-independent basis, Debye):
    X=              3.8508    Y=             -2.1030    Z=              4.7845  Tot=              6.4917
 Quadrupole moment (field-independent basis, Debye-Ang):
   XX=            -91.1425   YY=           -100.9273   ZZ=           -115.6532
   XY=            -13.0755   XZ=            -13.7666   YZ=             -1.4712

 Normal termination of Gaussian 09 at Thu Aug  6 22:03:32 2020.
