 Gaussian 09, Revision D.01,

 -----------------
 #p b3lyp/6-31G(d)
 -----------------

 ----------------
 SM43.n.9.pdb.xyz
 ----------------
 Symbolic Z-matrix:
 Charge =  0 Multiplicity = 1

 SCF Done:  E(RB3LYP) =  -1214.98431081     A.U. after   16 cycles
 Normal termination of Gaussian 09 at Thu Aug  6 22:17:47 2020.
 Gaussian 09:  AM64L-G09RevD.01 24-Apr-2013

 ----------------------------------------------------------------------
 #p b3lyp/6-31G(d) scrf=(iefpcm,read,solvent=n-Octanol) geom=allcheck g
 uess=read
 ----------------------------------------------------------------------

 Structure from the checkpoint file:  "SM43.n.9.pdb.xyz.mst.n.o.chk"
 ----------------
 SM43.n.9.pdb.xyz
 ----------------
 Charge =  0 Multiplicity = 1

                         Standard orientation:
 ---------------------------------------------------------------------
 Center     Atomic      Atomic             Coordinates (Angstroms)
 Number     Number       Type             X           Y           Z
 ---------------------------------------------------------------------
      1          8           0       -2.876598    0.107874   -1.804147
      2         16           0       -3.073664   -0.502591   -0.492500
      3          7           0       -1.628199   -1.071533    0.178175
      4          6           0       -0.393567   -0.432989    0.055377
      5          7           0       -0.284058    0.865304   -0.140708
      6          8           0        1.099054    1.101087   -0.164800
      7          6           0        1.768700   -0.059844    0.026157
      8          6           0        3.225656   -0.003040    0.034850
      9          6           0        3.892377    1.212352   -0.185443
     10          6           0        5.284415    1.257678   -0.176800
     11          6           0        6.024246    0.096401    0.049668
     12          6           0        5.365622   -1.116089    0.269980
     13          6           0        3.975591   -1.167017    0.262104
     14          6           0        0.869501   -1.079594    0.171495
     15          7           0       -3.423160    0.723985    0.575900
     16          6           0       -4.218659    1.834836    0.043113
     17          6           0       -3.775672    0.290548    1.931490
     18          8           0       -3.958519   -1.664922   -0.359644
     19          1           0       -1.602665   -2.087212    0.165932
     20          1           0        3.313586    2.110802   -0.361806
     21          1           0        5.791017    2.201165   -0.347514
     22          1           0        7.108041    0.133835    0.056121
     23          1           0        5.935007   -2.022062    0.447290
     24          1           0        3.468009   -2.110194    0.435041
     25          1           0        1.063579   -2.127340    0.331643
     26          1           0       -3.835057    2.115353   -0.935577
     27          1           0       -4.099173    2.675820    0.728912
     28          1           0       -5.285993    1.590398   -0.034732
     29          1           0       -3.064835   -0.466043    2.261490
     30          1           0       -4.794166   -0.110318    1.991460
     31          1           0       -3.691568    1.161200    2.584948
 ---------------------------------------------------------------------

 SCF Done:  E(RB3LYP) =  -1215.00713249     A.U. after   11 cycles

 The electronic state is 1-A.
 Alpha  occ. eigenvalues --  -89.14398 -19.23842 -19.15795 -19.15564 -14.39423
 Alpha  occ. eigenvalues --  -14.37942 -14.37894 -10.27695 -10.27008 -10.22438
 Alpha  occ. eigenvalues --  -10.22299 -10.21812 -10.20526 -10.20523 -10.20263
 Alpha  occ. eigenvalues --  -10.20141 -10.20074 -10.20003  -8.16571  -6.13092
 Alpha  occ. eigenvalues --   -6.12984  -6.12953  -1.14469  -1.13463  -1.01604
 Alpha  occ. eigenvalues --   -0.96637  -0.94565  -0.87678  -0.85311  -0.81147
 Alpha  occ. eigenvalues --   -0.75726  -0.75539  -0.73192  -0.72199  -0.65040
 Alpha  occ. eigenvalues --   -0.64740  -0.61848  -0.60375  -0.57224  -0.55433
 Alpha  occ. eigenvalues --   -0.54053  -0.52176  -0.50591  -0.48903  -0.48551
 Alpha  occ. eigenvalues --   -0.47915  -0.47116  -0.46187  -0.45138  -0.44769
 Alpha  occ. eigenvalues --   -0.43565  -0.42964  -0.42061  -0.41175  -0.39606
 Alpha  occ. eigenvalues --   -0.39557  -0.38732  -0.37577  -0.36480  -0.35697
 Alpha  occ. eigenvalues --   -0.35325  -0.34734  -0.32811  -0.31733  -0.30878
 Alpha  occ. eigenvalues --   -0.29991  -0.26681  -0.26251  -0.25483  -0.23566
 Alpha virt. eigenvalues --   -0.05240  -0.01173   0.02178   0.05033   0.06492
 Alpha virt. eigenvalues --    0.07022   0.07534   0.08396   0.09308   0.10938
 Alpha virt. eigenvalues --    0.11420   0.12237   0.12903   0.13856   0.14816

 Mulliken charges:
               1
     1  O   -0.535333
     2  S    1.342238
     3  N   -0.825337
     4  C    0.537199
     5  N   -0.241746
     6  O   -0.414477
     7  C    0.394067
     8  C    0.081932
     9  C   -0.171208
    10  C   -0.141807
    11  C   -0.127993
    12  C   -0.145826
    13  C   -0.174139
    14  C   -0.306125
    15  N   -0.517916
    16  C   -0.322553
    17  C   -0.320633
    18  O   -0.550048
    19  H    0.398611
    20  H    0.163231
    21  H    0.151903
    22  H    0.150824
    23  H    0.151838
    24  H    0.152061
    25  H    0.179763
    26  H    0.204005
    27  H    0.180142
    28  H    0.164421
    29  H    0.190522
    30  H    0.171125
    31  H    0.181259
 Sum of Mulliken charges =   0.00000

 Dipole moment (field-independent basis, Debye):
    X=              3.5298    Y=             -1.4072    Z=              4.1409  Tot=              5.6202
 Quadrupole moment (field-independent basis, Debye-Ang):
   XX=            -93.0018   YY=           -101.8945   ZZ=           -115.5505
   XY=            -12.3777   XZ=            -12.4158   YZ=             -1.4790

 Normal termination of Gaussian 09 at Thu Aug  6 22:20:24 2020.
