 Gaussian 09, Revision D.01,

 -----------------
 #p b3lyp/6-31G(d)
 -----------------

 ----------------
 SM43.n.2.pdb.xyz
 ----------------
 Symbolic Z-matrix:
 Charge =  0 Multiplicity = 1

 SCF Done:  E(RB3LYP) =  -1214.98922475     A.U. after   15 cycles
 Normal termination of Gaussian 09 at Thu Aug  6 22:15:03 2020.
 Gaussian 09:  AM64L-G09RevD.01 24-Apr-2013

 ----------------------------------------------------------------------
 #p b3lyp/6-31G(d) scrf=(iefpcm,read,solvent=n-Octanol) geom=allcheck g
 uess=read
 ----------------------------------------------------------------------

 Structure from the checkpoint file:  "SM43.n.2.pdb.xyz.mst.n.o.chk"
 ----------------
 SM43.n.2.pdb.xyz
 ----------------
 Charge =  0 Multiplicity = 1

                         Standard orientation:
 ---------------------------------------------------------------------
 Center     Atomic      Atomic             Coordinates (Angstroms)
 Number     Number       Type             X           Y           Z
 ---------------------------------------------------------------------
      1          8           0        4.247432   -0.330461   -0.945256
      2         16           0        2.919085    0.186230   -0.615133
      3          7           0        1.922495   -1.161060   -0.740180
      4          6           0        0.568817   -1.131395   -0.396741
      5          7           0        0.011395   -2.214633    0.106979
      6          8           0       -1.339021   -1.876744    0.259857
      7          6           0       -1.537554   -0.595057   -0.138264
      8          6           0       -2.893431   -0.065407   -0.041657
      9          6           0       -3.161910    1.260472   -0.420190
     10          6           0       -4.455256    1.765632   -0.329248
     11          6           0       -5.493485    0.957815    0.140136
     12          6           0       -5.231800   -0.360142    0.518350
     13          6           0       -3.941064   -0.871636    0.429163
     14          6           0       -0.352856   -0.067048   -0.574564
     15          7           0        2.773012    0.635232    0.996846
     16          6           0        3.415533   -0.282853    1.944552
     17          6           0        3.022291    2.058873    1.274939
     18          8           0        2.321643    1.266893   -1.394551
     19          1           0        2.403264   -2.045597   -0.604340
     20          1           0       -2.358164    1.891896   -0.783589
     21          1           0       -4.651984    2.790324   -0.623618
     22          1           0       -6.500834    1.354432    0.209887
     23          1           0       -6.034986   -0.991287    0.883017
     24          1           0       -3.734865   -1.894137    0.720448
     25          1           0       -0.143483    0.911300   -0.972569
     26          1           0        3.096551   -1.306938    1.746628
     27          1           0        3.075708   -0.009095    2.944202
     28          1           0        4.509686   -0.229853    1.905638
     29          1           0        2.487673    2.664628    0.546891
     30          1           0        4.090306    2.310394    1.252043
     31          1           0        2.631319    2.264453    2.272724
 ---------------------------------------------------------------------

 SCF Done:  E(RB3LYP) =  -1215.00979461     A.U. after   11 cycles

 The electronic state is 1-A.
 Alpha  occ. eigenvalues --  -89.14827 -19.24136 -19.16283 -19.16238 -14.39688
 Alpha  occ. eigenvalues --  -14.38404 -14.38394 -10.27830 -10.27093 -10.22955
 Alpha  occ. eigenvalues --  -10.22658 -10.21847 -10.20550 -10.20319 -10.20269
 Alpha  occ. eigenvalues --  -10.20153 -10.20074 -10.20010  -8.17025  -6.13532
 Alpha  occ. eigenvalues --   -6.13436  -6.13416  -1.14764  -1.14066  -1.02350
 Alpha  occ. eigenvalues --   -0.97083  -0.94795  -0.87734  -0.85502  -0.81198
 Alpha  occ. eigenvalues --   -0.75769  -0.75500  -0.73443  -0.72130  -0.65566
 Alpha  occ. eigenvalues --   -0.64425  -0.61776  -0.60272  -0.59208  -0.55491
 Alpha  occ. eigenvalues --   -0.54982  -0.51965  -0.50506  -0.49297  -0.48700
 Alpha  occ. eigenvalues --   -0.48024  -0.47098  -0.46679  -0.45399  -0.44882
 Alpha  occ. eigenvalues --   -0.43516  -0.42980  -0.42595  -0.41603  -0.40121
 Alpha  occ. eigenvalues --   -0.39629  -0.38768  -0.37389  -0.36425  -0.36018
 Alpha  occ. eigenvalues --   -0.35353  -0.34671  -0.33472  -0.32298  -0.32015
 Alpha  occ. eigenvalues --   -0.30092  -0.27102  -0.26372  -0.26129  -0.23622
 Alpha virt. eigenvalues --   -0.05354  -0.01187   0.01467   0.04382   0.05747
 Alpha virt. eigenvalues --    0.06779   0.08138   0.08838   0.09423   0.10393
 Alpha virt. eigenvalues --    0.11114   0.12306   0.13046   0.13906   0.14848

 Mulliken charges:
               1
     1  O   -0.534115
     2  S    1.335287
     3  N   -0.798207
     4  C    0.513119
     5  N   -0.260354
     6  O   -0.408438
     7  C    0.378887
     8  C    0.081413
     9  C   -0.173749
    10  C   -0.145592
    11  C   -0.127925
    12  C   -0.141768
    13  C   -0.171062
    14  C   -0.274179
    15  N   -0.519343
    16  C   -0.324787
    17  C   -0.326115
    18  O   -0.559591
    19  H    0.397658
    20  H    0.153203
    21  H    0.152260
    22  H    0.150967
    23  H    0.151833
    24  H    0.162576
    25  H    0.192667
    26  H    0.178042
    27  H    0.187274
    28  H    0.177149
    29  H    0.201746
    30  H    0.168011
    31  H    0.183135
 Sum of Mulliken charges =   0.00000

 Dipole moment (field-independent basis, Debye):
    X=             -2.1460    Y=              2.1768    Z=              4.0069  Tot=              5.0397
 Quadrupole moment (field-independent basis, Debye-Ang):
   XX=            -99.8334   YY=           -107.8653   ZZ=           -112.2401
   XY=             -4.9144   XZ=             14.6026   YZ=              2.6279

 Normal termination of Gaussian 09 at Thu Aug  6 22:18:20 2020.
