 Gaussian 09, Revision D.01,

 -----------------
 #p b3lyp/6-31G(d)
 -----------------

 -----------------
 SM43.n.10.pdb.xyz
 -----------------
 Symbolic Z-matrix:
 Charge =  0 Multiplicity = 1

 SCF Done:  E(RB3LYP) =  -1214.98627830     A.U. after   15 cycles
 Normal termination of Gaussian 09 at Thu Aug  6 21:59:52 2020.
 Gaussian 09:  AM64L-G09RevD.01 24-Apr-2013

 ----------------------------------------------------------------------
 #p b3lyp/6-31G(d) scrf=(iefpcm,read,solvent=Water) geom=allcheck guess
 =read
 ----------------------------------------------------------------------

 Structure from the checkpoint file:  "SM43.n.10.pdb.xyz.mst.n.w.chk"
 -----------------
 SM43.n.10.pdb.xyz
 -----------------
 Charge =  0 Multiplicity = 1

                         Standard orientation:
 ---------------------------------------------------------------------
 Center     Atomic      Atomic             Coordinates (Angstroms)
 Number     Number       Type             X           Y           Z
 ---------------------------------------------------------------------
      1          8           0       -2.767172    0.111540   -1.818034
      2         16           0       -3.097606   -0.505222   -0.533730
      3          7           0       -1.673630   -1.002837    0.260719
      4          6           0       -0.429620   -0.396962    0.113871
      5          7           0       -0.298898    0.894977   -0.120152
      6          8           0        1.089002    1.109372   -0.162975
      7          6           0        1.738517   -0.058297    0.062181
      8          6           0        3.196037   -0.027260    0.056955
      9          6           0        3.927278   -1.194165    0.335526
     10          6           0        5.318359   -1.165706    0.328012
     11          6           0        5.996686    0.022620    0.044520
     12          6           0        5.274509    1.185337   -0.232900
     13          6           0        3.882364    1.164214   -0.226823
     14          6           0        0.822657   -1.057208    0.243959
     15          7           0       -3.836326    0.651816    0.392990
     16          6           0       -4.167192    0.248466    1.766318
     17          6           0       -3.400041    2.049661    0.246725
     18          8           0       -3.923562   -1.711698   -0.471745
     19          1           0       -1.653799   -2.014653    0.366501
     20          1           0        3.405393   -2.118128    0.559084
     21          1           0        5.874017   -2.072097    0.545022
     22          1           0        7.081250    0.041819    0.039001
     23          1           0        5.795739    2.111185   -0.454005
     24          1           0        3.320187    2.064026   -0.443368
     25          1           0        0.996994   -2.104303    0.433962
     26          1           0       -4.582130   -0.758136    1.760279
     27          1           0       -4.926427    0.939474    2.135034
     28          1           0       -3.294460    0.286310    2.426178
     29          1           0       -3.238080    2.269706   -0.805763
     30          1           0       -2.486352    2.258810    0.811949
     31          1           0       -4.212122    2.673938    0.622870
 ---------------------------------------------------------------------

 SCF Done:  E(RB3LYP) =  -1215.00607447     A.U. after   11 cycles

 The electronic state is 1-A.
 Alpha  occ. eigenvalues --  -89.14899 -19.24143 -19.16429 -19.16175 -14.39015
 Alpha  occ. eigenvalues --  -14.38465 -14.38294 -10.27919 -10.27150 -10.22212
 Alpha  occ. eigenvalues --  -10.21930 -10.21746 -10.20385 -10.20348 -10.20161
 Alpha  occ. eigenvalues --  -10.19965 -10.19868 -10.19833  -8.17056  -6.13567
 Alpha  occ. eigenvalues --   -6.13476  -6.13450  -1.14705  -1.13985  -1.02397
 Alpha  occ. eigenvalues --   -0.96336  -0.94770  -0.87614  -0.85315  -0.81115
 Alpha  occ. eigenvalues --   -0.75579  -0.75409  -0.72857  -0.72179  -0.65174
 Alpha  occ. eigenvalues --   -0.64981  -0.61851  -0.60262  -0.57037  -0.55307
 Alpha  occ. eigenvalues --   -0.54096  -0.52350  -0.50595  -0.49146  -0.48377
 Alpha  occ. eigenvalues --   -0.48163  -0.47001  -0.46296  -0.45132  -0.44836
 Alpha  occ. eigenvalues --   -0.43433  -0.42799  -0.42033  -0.41004  -0.39800
 Alpha  occ. eigenvalues --   -0.39103  -0.38834  -0.37556  -0.36758  -0.36073
 Alpha  occ. eigenvalues --   -0.35118  -0.34198  -0.33516  -0.32378  -0.31614
 Alpha  occ. eigenvalues --   -0.30043  -0.27660  -0.26256  -0.25461  -0.23651
 Alpha virt. eigenvalues --   -0.05339  -0.01066   0.01852   0.04379   0.06538
 Alpha virt. eigenvalues --    0.07350   0.08042   0.08482   0.09493   0.10857
 Alpha virt. eigenvalues --    0.11614   0.12082   0.13357   0.14247   0.15249

 Mulliken charges:
               1
     1  O   -0.557123
     2  S    1.343428
     3  N   -0.823702
     4  C    0.540871
     5  N   -0.281737
     6  O   -0.420413
     7  C    0.399757
     8  C    0.078083
     9  C   -0.178608
    10  C   -0.153761
    11  C   -0.134303
    12  C   -0.149853
    13  C   -0.175696
    14  C   -0.302355
    15  N   -0.514357
    16  C   -0.329241
    17  C   -0.322251
    18  O   -0.580154
    19  H    0.427450
    20  H    0.165281
    21  H    0.160336
    22  H    0.159376
    23  H    0.159982
    24  H    0.165794
    25  H    0.195849
    26  H    0.197100
    27  H    0.191248
    28  H    0.177334
    29  H    0.196791
    30  H    0.179331
    31  H    0.185543
 Sum of Mulliken charges =   0.00000

 Dipole moment (field-independent basis, Debye):
    X=              4.6430    Y=             -1.5321    Z=              5.4282  Tot=              7.3055
 Quadrupole moment (field-independent basis, Debye-Ang):
   XX=            -97.6640   YY=           -100.7412   ZZ=           -115.9904
   XY=            -12.3865   XZ=            -16.3925   YZ=             -2.4965

 Normal termination of Gaussian 09 at Thu Aug  6 22:02:41 2020.
