 Gaussian 09, Revision D.01,

 -----------------
 #p b3lyp/6-31G(d)
 -----------------

 ----------------
 SM43.n.3.pdb.xyz
 ----------------
 Symbolic Z-matrix:
 Charge =  0 Multiplicity = 1

 SCF Done:  E(RB3LYP) =  -1214.98442811     A.U. after   16 cycles
 Normal termination of Gaussian 09 at Thu Aug  6 22:16:14 2020.
 Gaussian 09:  AM64L-G09RevD.01 24-Apr-2013

 ----------------------------------------------------------------------
 #p b3lyp/6-31G(d) scrf=(iefpcm,read,solvent=n-Octanol) geom=allcheck g
 uess=read
 ----------------------------------------------------------------------

 Structure from the checkpoint file:  "SM43.n.3.pdb.xyz.mst.n.o.chk"
 ----------------
 SM43.n.3.pdb.xyz
 ----------------
 Charge =  0 Multiplicity = 1

                         Standard orientation:
 ---------------------------------------------------------------------
 Center     Atomic      Atomic             Coordinates (Angstroms)
 Number     Number       Type             X           Y           Z
 ---------------------------------------------------------------------
      1          8           0       -2.822607    0.035942   -1.809811
      2         16           0       -3.058305   -0.523685   -0.481860
      3          7           0       -1.629588   -1.062021    0.251128
      4          6           0       -0.392418   -0.427762    0.114795
      5          7           0       -0.285309    0.870817   -0.080368
      6          8           0        1.097928    1.104963   -0.125119
      7          6           0        1.768319   -0.056211    0.055118
      8          6           0        3.226299   -0.000518    0.041917
      9          6           0        3.890213    1.218322   -0.166108
     10          6           0        5.280982    1.263483   -0.178389
     11          6           0        6.024613    0.097282    0.015439
     12          6           0        5.368050   -1.118225    0.221501
     13          6           0        3.978592   -1.169520    0.235413
     14          6           0        0.870622   -1.074968    0.212667
     15          7           0       -3.446335    0.740329    0.525618
     16          6           0       -4.214724    1.834845   -0.076186
     17          6           0       -3.847877    0.359295    1.883521
     18          8           0       -3.943619   -1.683637   -0.330617
     19          1           0       -1.601320   -2.076574    0.271320
     20          1           0        3.309371    2.120609   -0.315879
     21          1           0        5.786166    2.210157   -0.339392
     22          1           0        7.108165    0.134751    0.004088
     23          1           0        5.940227   -2.027846    0.372729
     24          1           0        3.472906   -2.114576    0.396774
     25          1           0        1.065479   -2.124099    0.368113
     26          1           0       -3.789880    2.081032   -1.046900
     27          1           0       -4.118105    2.698313    0.584100
     28          1           0       -5.278081    1.590818   -0.188992
     29          1           0       -3.150400   -0.385813    2.267696
     30          1           0       -4.868156   -0.038893    1.921544
     31          1           0       -3.784502    1.252933    2.506168
 ---------------------------------------------------------------------

 SCF Done:  E(RB3LYP) =  -1215.00717635     A.U. after   11 cycles

 The electronic state is 1-A.
 Alpha  occ. eigenvalues --  -89.14376 -19.23868 -19.15784 -19.15542 -14.39381
 Alpha  occ. eigenvalues --  -14.37930 -14.37915 -10.27668 -10.27020 -10.22439
 Alpha  occ. eigenvalues --  -10.22279 -10.21820 -10.20527 -10.20520 -10.20252
 Alpha  occ. eigenvalues --  -10.20144 -10.20072 -10.20007  -8.16551  -6.13070
 Alpha  occ. eigenvalues --   -6.12964  -6.12934  -1.14504  -1.13446  -1.01586
 Alpha  occ. eigenvalues --   -0.96589  -0.94566  -0.87682  -0.85323  -0.81151
 Alpha  occ. eigenvalues --   -0.75744  -0.75533  -0.73191  -0.72199  -0.65048
 Alpha  occ. eigenvalues --   -0.64681  -0.61824  -0.60380  -0.57202  -0.55428
 Alpha  occ. eigenvalues --   -0.54047  -0.52168  -0.50600  -0.48912  -0.48526
 Alpha  occ. eigenvalues --   -0.47937  -0.47115  -0.46190  -0.45133  -0.44746
 Alpha  occ. eigenvalues --   -0.43573  -0.42983  -0.42042  -0.41196  -0.39630
 Alpha  occ. eigenvalues --   -0.39500  -0.38710  -0.37561  -0.36467  -0.35694
 Alpha  occ. eigenvalues --   -0.35315  -0.34738  -0.32789  -0.31716  -0.30922
 Alpha  occ. eigenvalues --   -0.29980  -0.26727  -0.26268  -0.25460  -0.23573
 Alpha virt. eigenvalues --   -0.05253  -0.01158   0.02066   0.05082   0.06488
 Alpha virt. eigenvalues --    0.06998   0.07652   0.08396   0.09330   0.10927
 Alpha virt. eigenvalues --    0.11426   0.12246   0.12903   0.13840   0.14803

 Mulliken charges:
               1
     1  O   -0.535462
     2  S    1.340505
     3  N   -0.823155
     4  C    0.534029
     5  N   -0.240914
     6  O   -0.413655
     7  C    0.394044
     8  C    0.081144
     9  C   -0.170705
    10  C   -0.142113
    11  C   -0.127910
    12  C   -0.145996
    13  C   -0.173377
    14  C   -0.305720
    15  N   -0.517361
    16  C   -0.322106
    17  C   -0.320248
    18  O   -0.550643
    19  H    0.397927
    20  H    0.163205
    21  H    0.151878
    22  H    0.150957
    23  H    0.151697
    24  H    0.152103
    25  H    0.179913
    26  H    0.203892
    27  H    0.179974
    28  H    0.165074
    29  H    0.190291
    30  H    0.171382
    31  H    0.181354
 Sum of Mulliken charges =   0.00000

 Dipole moment (field-independent basis, Debye):
    X=              3.4314    Y=             -1.2350    Z=              4.0207  Tot=              5.4283
 Quadrupole moment (field-independent basis, Debye-Ang):
   XX=            -92.1235   YY=           -101.9267   ZZ=           -115.7088
   XY=            -12.9405   XZ=            -12.0230   YZ=             -1.9495

 Normal termination of Gaussian 09 at Thu Aug  6 22:18:48 2020.
