 Gaussian 09, Revision D.01,

 -----------------
 #p b3lyp/6-31G(d)
 -----------------

 ----------------
 SM43.n.6.pdb.xyz
 ----------------
 Symbolic Z-matrix:
 Charge =  0 Multiplicity = 1

 SCF Done:  E(RB3LYP) =  -1214.97922112     A.U. after   16 cycles
 Normal termination of Gaussian 09 at Thu Aug  6 21:59:59 2020.
 Gaussian 09:  AM64L-G09RevD.01 24-Apr-2013

 ----------------------------------------------------------------------
 #p b3lyp/6-31G(d) scrf=(iefpcm,read,solvent=Water) geom=allcheck guess
 =read
 ----------------------------------------------------------------------

 Structure from the checkpoint file:  "SM43.n.6.pdb.xyz.mst.n.w.chk"
 ----------------
 SM43.n.6.pdb.xyz
 ----------------
 Charge =  0 Multiplicity = 1

                         Standard orientation:
 ---------------------------------------------------------------------
 Center     Atomic      Atomic             Coordinates (Angstroms)
 Number     Number       Type             X           Y           Z
 ---------------------------------------------------------------------
      1          8           0        3.029252   -0.790664    1.631684
      2         16           0        2.941991   -0.404471    0.219846
      3          7           0        1.593288    0.572974   -0.087065
      4          6           0        0.291779    0.065444   -0.096624
      5          7           0        0.018139   -1.210197   -0.285084
      6          8           0       -1.386811   -1.276054   -0.261089
      7          6           0       -1.898455   -0.038335   -0.061077
      8          6           0       -3.351140    0.087828   -0.009536
      9          6           0       -3.943038    1.345284    0.193237
     10          6           0       -5.327766    1.467475    0.244509
     11          6           0       -6.138878    0.339065    0.093838
     12          6           0       -5.555853   -0.914974   -0.107326
     13          6           0       -4.170863   -1.042966   -0.159128
     14          6           0       -0.876681    0.861894    0.053502
     15          7           0        4.091845    0.770070   -0.051823
     16          6           0        5.328200    0.640926    0.737492
     17          6           0        4.299150    1.118212   -1.467542
     18          8           0        2.927339   -1.470176   -0.787490
     19          1           0        1.683883    1.477580    0.375689
     20          1           0       -3.317597    2.222998    0.311042
     21          1           0       -5.774995    2.442728    0.400029
     22          1           0       -7.218289    0.436429    0.133905
     23          1           0       -6.181149   -1.793272   -0.224332
     24          1           0       -3.716300   -2.014024   -0.315424
     25          1           0       -0.929849    1.925772    0.216947
     26          1           0        5.075522    0.425150    1.772506
     27          1           0        5.842006    1.601965    0.686169
     28          1           0        5.992602   -0.138624    0.347372
     29          1           0        3.333355    1.244934   -1.954963
     30          1           0        4.883746    0.358363   -1.997705
     31          1           0        4.835331    2.067636   -1.493877
 ---------------------------------------------------------------------

 SCF Done:  E(RB3LYP) =  -1215.00455733     A.U. after   12 cycles

 The electronic state is 1-A.
 Alpha  occ. eigenvalues --  -89.14886 -19.24141 -19.16340 -19.16131 -14.39414
 Alpha  occ. eigenvalues --  -14.38455 -14.38377 -10.28126 -10.27207 -10.22278
 Alpha  occ. eigenvalues --  -10.22219 -10.21769 -10.20424 -10.20354 -10.20183
 Alpha  occ. eigenvalues --  -10.19984 -10.19871 -10.19838  -8.17084  -6.13589
 Alpha  occ. eigenvalues --   -6.13507  -6.13465  -1.14716  -1.13821  -1.01909
 Alpha  occ. eigenvalues --   -0.96996  -0.94789  -0.87692  -0.85550  -0.81217
 Alpha  occ. eigenvalues --   -0.75601  -0.75454  -0.73121  -0.72407  -0.65251
 Alpha  occ. eigenvalues --   -0.63872  -0.61815  -0.60317  -0.57250  -0.55548
 Alpha  occ. eigenvalues --   -0.54610  -0.51589  -0.50640  -0.49457  -0.48358
 Alpha  occ. eigenvalues --   -0.48072  -0.47014  -0.46197  -0.45434  -0.44778
 Alpha  occ. eigenvalues --   -0.43399  -0.42771  -0.41805  -0.41028  -0.39915
 Alpha  occ. eigenvalues --   -0.39649  -0.38841  -0.37769  -0.36621  -0.36237
 Alpha  occ. eigenvalues --   -0.35432  -0.35103  -0.33372  -0.32178  -0.31372
 Alpha  occ. eigenvalues --   -0.30076  -0.26748  -0.26380  -0.25970  -0.23735
 Alpha virt. eigenvalues --   -0.05364  -0.01064   0.01922   0.04891   0.05999
 Alpha virt. eigenvalues --    0.06947   0.07277   0.08563   0.10408   0.10485
 Alpha virt. eigenvalues --    0.11346   0.11727   0.13441   0.13802   0.15284

 Mulliken charges:
               1
     1  O   -0.543263
     2  S    1.297849
     3  N   -0.801394
     4  C    0.532579
     5  N   -0.286530
     6  O   -0.419467
     7  C    0.401969
     8  C    0.077814
     9  C   -0.178673
    10  C   -0.153481
    11  C   -0.134448
    12  C   -0.149630
    13  C   -0.175690
    14  C   -0.299819
    15  N   -0.537756
    16  C   -0.321433
    17  C   -0.320826
    18  O   -0.555115
    19  H    0.429020
    20  H    0.165132
    21  H    0.160575
    22  H    0.159455
    23  H    0.160250
    24  H    0.166021
    25  H    0.196349
    26  H    0.200293
    27  H    0.190236
    28  H    0.175022
    29  H    0.195533
    30  H    0.178112
    31  H    0.191315
 Sum of Mulliken charges =   0.00000

 Dipole moment (field-independent basis, Debye):
    X=             -0.9017    Y=              9.3681    Z=             -0.2615  Tot=              9.4150
 Quadrupole moment (field-independent basis, Debye-Ang):
   XX=            -68.4317   YY=           -108.0891   ZZ=           -116.8535
   XY=             15.5239   XZ=             -4.6897   YZ=              0.5134

 Normal termination of Gaussian 09 at Thu Aug  6 22:02:53 2020.
