 Gaussian 09, Revision D.01,

 -----------------
 #p b3lyp/6-31G(d)
 -----------------

 ----------------
 SM43.n.1.pdb.xyz
 ----------------
 Symbolic Z-matrix:
 Charge =  0 Multiplicity = 1

 SCF Done:  E(RB3LYP) =  -1214.98635498     A.U. after   16 cycles
 Normal termination of Gaussian 09 at Thu Aug  6 22:00:09 2020.
 Gaussian 09:  AM64L-G09RevD.01 24-Apr-2013

 ----------------------------------------------------------------------
 #p b3lyp/6-31G(d) scrf=(iefpcm,read,solvent=Water) geom=allcheck guess
 =read
 ----------------------------------------------------------------------

 Structure from the checkpoint file:  "SM43.n.1.pdb.xyz.mst.n.w.chk"
 ----------------
 SM43.n.1.pdb.xyz
 ----------------
 Charge =  0 Multiplicity = 1

                         Standard orientation:
 ---------------------------------------------------------------------
 Center     Atomic      Atomic             Coordinates (Angstroms)
 Number     Number       Type             X           Y           Z
 ---------------------------------------------------------------------
      1          8           0       -2.717851    0.040503   -1.819598
      2         16           0       -3.080539   -0.528960   -0.522791
      3          7           0       -1.671835   -0.966947    0.336550
      4          6           0       -0.425412   -0.370268    0.166376
      5          7           0       -0.291069    0.916418   -0.091849
      6          8           0        1.096438    1.124848   -0.155328
      7          6           0        1.743548   -0.042079    0.083831
      8          6           0        3.201910   -0.018680    0.062805
      9          6           0        3.893976    1.176698   -0.187087
     10          6           0        5.287446    1.186759   -0.205094
     11          6           0        6.001918    0.009383    0.024112
     12          6           0        5.317369   -1.182796    0.273495
     13          6           0        3.925747   -1.199240    0.292423
     14          6           0        0.826670   -1.033788    0.293913
     15          7           0       -3.868516    0.650200    0.331680
     16          6           0       -4.256749    0.287970    1.701095
     17          6           0       -3.435180    2.045175    0.157795
     18          8           0       -3.888572   -1.745207   -0.436743
     19          1           0       -1.647451   -1.973136    0.493814
     20          1           0        3.337974    2.089217   -0.365580
     21          1           0        5.814233    2.115235   -0.398671
     22          1           0        7.087146    0.019762    0.009994
     23          1           0        5.867042   -2.100644    0.452727
     24          1           0        3.398959   -2.127716    0.486000
     25          1           0        0.998296   -2.076682    0.502927
     26          1           0       -4.656227   -0.724734    1.709212
     27          1           0       -5.040476    0.979436    2.013188
     28          1           0       -3.414406    0.360332    2.398505
     29          1           0       -3.232597    2.232452   -0.894195
     30          1           0       -2.546674    2.279621    0.752309
     31          1           0       -4.264810    2.676558    0.481107
 ---------------------------------------------------------------------

 SCF Done:  E(RB3LYP) =  -1215.00605245     A.U. after   11 cycles

 The electronic state is 1-A.
 Alpha  occ. eigenvalues --  -89.14890 -19.24176 -19.16471 -19.16196 -14.39003
 Alpha  occ. eigenvalues --  -14.38477 -14.38326 -10.27904 -10.27150 -10.22217
 Alpha  occ. eigenvalues --  -10.21969 -10.21743 -10.20387 -10.20337 -10.20181
 Alpha  occ. eigenvalues --  -10.19962 -10.19866 -10.19838  -8.17056  -6.13564
 Alpha  occ. eigenvalues --   -6.13477  -6.13449  -1.14723  -1.14030  -1.02456
 Alpha  occ. eigenvalues --   -0.96292  -0.94809  -0.87612  -0.85310  -0.81118
 Alpha  occ. eigenvalues --   -0.75567  -0.75407  -0.72884  -0.72179  -0.65115
 Alpha  occ. eigenvalues --   -0.64966  -0.61855  -0.60251  -0.57014  -0.55307
 Alpha  occ. eigenvalues --   -0.54114  -0.52357  -0.50599  -0.49177  -0.48343
 Alpha  occ. eigenvalues --   -0.48190  -0.47012  -0.46314  -0.45154  -0.44833
 Alpha  occ. eigenvalues --   -0.43453  -0.42788  -0.42041  -0.40994  -0.39851
 Alpha  occ. eigenvalues --   -0.39115  -0.38791  -0.37527  -0.36775  -0.36059
 Alpha  occ. eigenvalues --   -0.35140  -0.34238  -0.33554  -0.32378  -0.31665
 Alpha  occ. eigenvalues --   -0.30053  -0.27655  -0.26245  -0.25517  -0.23667
 Alpha virt. eigenvalues --   -0.05330  -0.01085   0.01701   0.04439   0.06442
 Alpha virt. eigenvalues --    0.07457   0.08036   0.08442   0.09483   0.10852
 Alpha virt. eigenvalues --    0.11639   0.12060   0.13365   0.14239   0.15242

 Mulliken charges:
               1
     1  O   -0.556951
     2  S    1.342853
     3  N   -0.824234
     4  C    0.537166
     5  N   -0.280044
     6  O   -0.419856
     7  C    0.398679
     8  C    0.079706
     9  C   -0.176473
    10  C   -0.149857
    11  C   -0.134393
    12  C   -0.153484
    13  C   -0.179470
    14  C   -0.300647
    15  N   -0.512661
    16  C   -0.329667
    17  C   -0.322938
    18  O   -0.579375
    19  H    0.427166
    20  H    0.165849
    21  H    0.160002
    22  H    0.159227
    23  H    0.160470
    24  H    0.165248
    25  H    0.195949
    26  H    0.197864
    27  H    0.191417
    28  H    0.176596
    29  H    0.196591
    30  H    0.179121
    31  H    0.186148
 Sum of Mulliken charges =   0.00000

 Dipole moment (field-independent basis, Debye):
    X=              4.4134    Y=             -1.3452    Z=              5.4146  Tot=              7.1138
 Quadrupole moment (field-independent basis, Debye-Ang):
   XX=            -95.9251   YY=           -101.0239   ZZ=           -116.2405
   XY=            -13.0716   XZ=            -16.0823   YZ=             -2.9017

 Normal termination of Gaussian 09 at Thu Aug  6 22:02:56 2020.
