 Gaussian 09, Revision D.01,

 -----------------
 #p b3lyp/6-31G(d)
 -----------------

 ----------------
 SM43.n.5.pdb.xyz
 ----------------
 Symbolic Z-matrix:
 Charge =  0 Multiplicity = 1

 SCF Done:  E(RB3LYP) =  -1214.98839118     A.U. after   16 cycles
 Normal termination of Gaussian 09 at Thu Aug  6 22:16:41 2020.
 Gaussian 09:  AM64L-G09RevD.01 24-Apr-2013

 ----------------------------------------------------------------------
 #p b3lyp/6-31G(d) scrf=(iefpcm,read,solvent=n-Octanol) geom=allcheck g
 uess=read
 ----------------------------------------------------------------------

 Structure from the checkpoint file:  "SM43.n.5.pdb.xyz.mst.n.o.chk"
 ----------------
 SM43.n.5.pdb.xyz
 ----------------
 Charge =  0 Multiplicity = 1

                         Standard orientation:
 ---------------------------------------------------------------------
 Center     Atomic      Atomic             Coordinates (Angstroms)
 Number     Number       Type             X           Y           Z
 ---------------------------------------------------------------------
      1          8           0        1.913632    1.126433    1.197012
      2         16           0        2.804832    0.094929    0.682822
      3          7           0        1.847586   -0.911966   -0.319862
      4          6           0        0.452218   -0.960172   -0.217918
      5          7           0       -0.139055   -2.132726   -0.342979
      6          8           0       -1.508819   -1.845844   -0.304836
      7          6           0       -1.690464   -0.512758   -0.140206
      8          6           0       -3.064162   -0.028364   -0.065807
      9          6           0       -4.143289   -0.917795   -0.188810
     10          6           0       -5.450298   -0.444840   -0.117677
     11          6           0       -5.697605    0.915412    0.076745
     12          6           0       -4.627641    1.804870    0.199937
     13          6           0       -3.319279    1.338037    0.130097
     14          6           0       -0.473124    0.108381   -0.083876
     15          7           0        3.883844    0.828613   -0.343277
     16          6           0        4.930271   -0.036787   -0.899384
     17          6           0        3.293831    1.771963   -1.300396
     18          8           0        3.576452   -0.773807    1.566725
     19          1           0        2.262852   -1.838479   -0.409331
     20          1           0       -3.946167   -1.972091   -0.339586
     21          1           0       -6.278182   -1.139827   -0.213395
     22          1           0       -6.717795    1.280533    0.131712
     23          1           0       -4.812709    2.862625    0.352643
     24          1           0       -2.491774    2.032179    0.228669
     25          1           0       -0.248830    1.150680    0.055349
     26          1           0        5.320278   -0.680665   -0.113962
     27          1           0        5.733079    0.607584   -1.261497
     28          1           0        4.562099   -0.646876   -1.735134
     29          1           0        2.577105    2.405955   -0.780834
     30          1           0        2.801312    1.256823   -2.135449
     31          1           0        4.101922    2.393315   -1.688952
 ---------------------------------------------------------------------

 SCF Done:  E(RB3LYP) =  -1215.00941968     A.U. after   11 cycles

 The electronic state is 1-A.
 Alpha  occ. eigenvalues --  -89.14842 -19.23943 -19.16622 -19.16498 -14.39294
 Alpha  occ. eigenvalues --  -14.38720 -14.38144 -10.27652 -10.26872 -10.22897
 Alpha  occ. eigenvalues --  -10.22783 -10.21739 -10.20437 -10.20197 -10.20146
 Alpha  occ. eigenvalues --  -10.20083 -10.20005 -10.19953  -8.17073  -6.13573
 Alpha  occ. eigenvalues --   -6.13488  -6.13461  -1.14669  -1.14306  -1.02870
 Alpha  occ. eigenvalues --   -0.96562  -0.95300  -0.87558  -0.85151  -0.81046
 Alpha  occ. eigenvalues --   -0.75678  -0.75373  -0.73588  -0.72323  -0.65444
 Alpha  occ. eigenvalues --   -0.64034  -0.61684  -0.59832  -0.59014  -0.55211
 Alpha  occ. eigenvalues --   -0.54895  -0.52216  -0.50486  -0.49560  -0.48632
 Alpha  occ. eigenvalues --   -0.48054  -0.47154  -0.46535  -0.45415  -0.44689
 Alpha  occ. eigenvalues --   -0.43419  -0.42793  -0.42565  -0.41654  -0.40059
 Alpha  occ. eigenvalues --   -0.39709  -0.38588  -0.37335  -0.36775  -0.36344
 Alpha  occ. eigenvalues --   -0.35262  -0.34238  -0.34009  -0.32355  -0.31860
 Alpha  occ. eigenvalues --   -0.29918  -0.27811  -0.26312  -0.25745  -0.23476
 Alpha virt. eigenvalues --   -0.05185  -0.01104   0.01814   0.04284   0.06425
 Alpha virt. eigenvalues --    0.06766   0.08204   0.08472   0.09198   0.10380
 Alpha virt. eigenvalues --    0.10833   0.12348   0.12543   0.13596   0.14814

 Mulliken charges:
               1
     1  O   -0.552999
     2  S    1.346255
     3  N   -0.812052
     4  C    0.497236
     5  N   -0.259033
     6  O   -0.409140
     7  C    0.379414
     8  C    0.082414
     9  C   -0.171459
    10  C   -0.142198
    11  C   -0.128329
    12  C   -0.145741
    13  C   -0.174209
    14  C   -0.267397
    15  N   -0.494659
    16  C   -0.339655
    17  C   -0.335993
    18  O   -0.536455
    19  H    0.390575
    20  H    0.162063
    21  H    0.151241
    22  H    0.150429
    23  H    0.151639
    24  H    0.152524
    25  H    0.184946
    26  H    0.204864
    27  H    0.188603
    28  H    0.168400
    29  H    0.199499
    30  H    0.171954
    31  H    0.187265
 Sum of Mulliken charges =   0.00000

 Dipole moment (field-independent basis, Debye):
    X=              0.0965    Y=              2.7936    Z=             -4.4571  Tot=              5.2611
 Quadrupole moment (field-independent basis, Debye-Ang):
   XX=            -81.9834   YY=           -109.6300   ZZ=           -117.4169
   XY=             -3.0765   XZ=            -17.5158   YZ=             -1.9108

 Normal termination of Gaussian 09 at Thu Aug  6 22:19:14 2020.
