 Gaussian 09, Revision D.01,

 -----------------
 #p b3lyp/6-31G(d)
 -----------------

 ----------------
 SM43.n.3.pdb.xyz
 ----------------
 Symbolic Z-matrix:
 Charge =  0 Multiplicity = 1

 SCF Done:  E(RB3LYP) =  -1214.98347255     A.U. after   16 cycles
 Normal termination of Gaussian 09 at Thu Aug  6 22:00:07 2020.
 Gaussian 09:  AM64L-G09RevD.01 24-Apr-2013

 ----------------------------------------------------------------------
 #p b3lyp/6-31G(d) scrf=(iefpcm,read,solvent=Water) geom=allcheck guess
 =read
 ----------------------------------------------------------------------

 Structure from the checkpoint file:  "SM43.n.3.pdb.xyz.mst.n.w.chk"
 ----------------
 SM43.n.3.pdb.xyz
 ----------------
 Charge =  0 Multiplicity = 1

                         Standard orientation:
 ---------------------------------------------------------------------
 Center     Atomic      Atomic             Coordinates (Angstroms)
 Number     Number       Type             X           Y           Z
 ---------------------------------------------------------------------
      1          8           0       -2.913984    0.114244   -1.796000
      2         16           0       -3.079334   -0.497051   -0.474896
      3          7           0       -1.627945   -1.084938    0.140250
      4          6           0       -0.396933   -0.446573    0.005351
      5          7           0       -0.289057    0.844562   -0.246987
      6          8           0        1.096417    1.085569   -0.260221
      7          6           0        1.763676   -0.066311   -0.011024
      8          6           0        3.220856   -0.004244    0.021864
      9          6           0        3.889099    1.213684   -0.184261
     10          6           0        5.280388    1.264158   -0.149149
     11          6           0        6.019970    0.104220    0.092393
     12          6           0        5.360386   -1.111436    0.297602
     13          6           0        3.970201   -1.167805    0.262663
     14          6           0        0.864687   -1.082016    0.164964
     15          7           0       -3.378889    0.738854    0.600889
     16          6           0       -4.249614    1.815405    0.100500
     17          6           0       -3.671547    0.305458    1.975296
     18          8           0       -3.989006   -1.640672   -0.335190
     19          1           0       -1.603567   -2.103363    0.148310
     20          1           0        3.313217    2.112439   -0.370164
     21          1           0        5.786825    2.209228   -0.308789
     22          1           0        7.103552    0.145714    0.119735
     23          1           0        5.929871   -2.015438    0.484237
     24          1           0        3.463765   -2.112875    0.422303
     25          1           0        1.053063   -2.121434    0.376524
     26          1           0       -3.918536    2.120738   -0.889115
     27          1           0       -4.142044    2.655418    0.788773
     28          1           0       -5.304070    1.517883    0.064778
     29          1           0       -2.935604   -0.436874    2.285200
     30          1           0       -4.680416   -0.110560    2.073207
     31          1           0       -3.579905    1.182212    2.618377
 ---------------------------------------------------------------------

 SCF Done:  E(RB3LYP) =  -1215.00577771     A.U. after   11 cycles

 The electronic state is 1-A.
 Alpha  occ. eigenvalues --  -89.14879 -19.24083 -19.16234 -19.16127 -14.39435
 Alpha  occ. eigenvalues --  -14.38269 -14.38176 -10.28023 -10.27147 -10.22156
 Alpha  occ. eigenvalues --  -10.22107 -10.21751 -10.20396 -10.20336 -10.20169
 Alpha  occ. eigenvalues --  -10.19966 -10.19868 -10.19824  -8.17043  -6.13561
 Alpha  occ. eigenvalues --   -6.13459  -6.13426  -1.14637  -1.13820  -1.01960
 Alpha  occ. eigenvalues --   -0.96878  -0.94572  -0.87629  -0.85431  -0.81162
 Alpha  occ. eigenvalues --   -0.75560  -0.75451  -0.72988  -0.72209  -0.65008
 Alpha  occ. eigenvalues --   -0.64878  -0.61769  -0.60252  -0.57173  -0.55333
 Alpha  occ. eigenvalues --   -0.54025  -0.52456  -0.50579  -0.48948  -0.48513
 Alpha  occ. eigenvalues --   -0.48068  -0.46928  -0.46127  -0.45124  -0.44871
 Alpha  occ. eigenvalues --   -0.43403  -0.42743  -0.41992  -0.40913  -0.39755
 Alpha  occ. eigenvalues --   -0.39521  -0.38700  -0.37655  -0.36490  -0.36056
 Alpha  occ. eigenvalues --   -0.35113  -0.35084  -0.33298  -0.32398  -0.31457
 Alpha  occ. eigenvalues --   -0.30026  -0.26753  -0.26226  -0.25797  -0.23650
 Alpha virt. eigenvalues --   -0.05307  -0.01062   0.02067   0.05167   0.06424
 Alpha virt. eigenvalues --    0.07006   0.07329   0.08588   0.09692   0.11091
 Alpha virt. eigenvalues --    0.11372   0.12408   0.13398   0.14049   0.15253

 Mulliken charges:
               1
     1  O   -0.562862
     2  S    1.347363
     3  N   -0.825392
     4  C    0.544900
     5  N   -0.283047
     6  O   -0.421908
     7  C    0.400740
     8  C    0.078434
     9  C   -0.176450
    10  C   -0.149527
    11  C   -0.134651
    12  C   -0.153659
    13  C   -0.179292
    14  C   -0.301137
    15  N   -0.528071
    16  C   -0.324144
    17  C   -0.326454
    18  O   -0.563706
    19  H    0.431700
    20  H    0.165706
    21  H    0.160030
    22  H    0.159257
    23  H    0.160444
    24  H    0.165054
    25  H    0.195897
    26  H    0.199372
    27  H    0.188511
    28  H    0.173228
    29  H    0.194484
    30  H    0.175376
    31  H    0.189804
 Sum of Mulliken charges =   0.00000

 Dipole moment (field-independent basis, Debye):
    X=              3.9608    Y=             -2.1038    Z=              4.9821  Tot=              6.7034
 Quadrupole moment (field-independent basis, Debye-Ang):
   XX=            -92.2484   YY=           -100.6267   ZZ=           -115.5508
   XY=            -12.9363   XZ=            -13.8375   YZ=             -1.0476

 Normal termination of Gaussian 09 at Thu Aug  6 22:02:54 2020.
