 Gaussian 09, Revision D.01,

 -----------------
 #p b3lyp/6-31G(d)
 -----------------

 ----------------
 SM43.n.2.pdb.xyz
 ----------------
 Symbolic Z-matrix:
 Charge =  0 Multiplicity = 1

 SCF Done:  E(RB3LYP) =  -1214.98882644     A.U. after   15 cycles
 Normal termination of Gaussian 09 at Thu Aug  6 21:59:59 2020.
 Gaussian 09:  AM64L-G09RevD.01 24-Apr-2013

 ----------------------------------------------------------------------
 #p b3lyp/6-31G(d) scrf=(iefpcm,read,solvent=Water) geom=allcheck guess
 =read
 ----------------------------------------------------------------------

 Structure from the checkpoint file:  "SM43.n.2.pdb.xyz.mst.n.w.chk"
 ----------------
 SM43.n.2.pdb.xyz
 ----------------
 Charge =  0 Multiplicity = 1

                         Standard orientation:
 ---------------------------------------------------------------------
 Center     Atomic      Atomic             Coordinates (Angstroms)
 Number     Number       Type             X           Y           Z
 ---------------------------------------------------------------------
      1          8           0        4.251748   -0.306581   -0.951982
      2         16           0        2.915543    0.193167   -0.609731
      3          7           0        1.924415   -1.154580   -0.767276
      4          6           0        0.573652   -1.124944   -0.412259
      5          7           0        0.020946   -2.209021    0.099952
      6          8           0       -1.332317   -1.873157    0.259779
      7          6           0       -1.535227   -0.593893   -0.142794
      8          6           0       -2.892009   -0.065989   -0.041110
      9          6           0       -3.160245    1.262960   -0.411858
     10          6           0       -4.453857    1.766783   -0.319530
     11          6           0       -5.493703    0.956364    0.142978
     12          6           0       -5.232278   -0.364675    0.513538
     13          6           0       -3.940731   -0.876179    0.422866
     14          6           0       -0.354195   -0.066161   -0.588167
     15          7           0        2.761344    0.622886    1.003198
     16          6           0        3.392573   -0.315013    1.944368
     17          6           0        3.031740    2.041710    1.300458
     18          8           0        2.326459    1.281837   -1.387754
     19          1           0        2.408162   -2.035611   -0.591969
     20          1           0       -2.356408    1.897709   -0.768495
     21          1           0       -4.651284    2.793454   -0.607192
     22          1           0       -6.501308    1.351077    0.213372
     23          1           0       -6.035842   -0.999245    0.873158
     24          1           0       -3.736890   -1.901049    0.708157
     25          1           0       -0.156794    0.912797   -0.991193
     26          1           0        3.075198   -1.334882    1.726386
     27          1           0        3.042888   -0.053874    2.943805
     28          1           0        4.486144   -0.258058    1.918495
     29          1           0        2.497141    2.667521    0.589149
     30          1           0        4.101479    2.278376    1.274030
     31          1           0        2.650450    2.233549    2.305599
 ---------------------------------------------------------------------

 SCF Done:  E(RB3LYP) =  -1215.00692353     A.U. after   11 cycles

 The electronic state is 1-A.
 Alpha  occ. eigenvalues --  -89.15025 -19.24365 -19.16533 -19.16491 -14.39579
 Alpha  occ. eigenvalues --  -14.38712 -14.38419 -10.28072 -10.27260 -10.22447
 Alpha  occ. eigenvalues --  -10.22217 -10.21799 -10.20384 -10.20341 -10.20194
 Alpha  occ. eigenvalues --  -10.19980 -10.19876 -10.19848  -8.17226  -6.13727
 Alpha  occ. eigenvalues --   -6.13638  -6.13623  -1.14905  -1.14193  -1.02443
 Alpha  occ. eigenvalues --   -0.97121  -0.94668  -0.87698  -0.85560  -0.81235
 Alpha  occ. eigenvalues --   -0.75626  -0.75419  -0.73001  -0.72029  -0.65519
 Alpha  occ. eigenvalues --   -0.64360  -0.61606  -0.60078  -0.59024  -0.55341
 Alpha  occ. eigenvalues --   -0.54779  -0.52092  -0.50409  -0.49285  -0.48601
 Alpha  occ. eigenvalues --   -0.48179  -0.46805  -0.46478  -0.45345  -0.44798
 Alpha  occ. eigenvalues --   -0.43379  -0.42723  -0.42352  -0.41085  -0.40230
 Alpha  occ. eigenvalues --   -0.39259  -0.38735  -0.37433  -0.36292  -0.36258
 Alpha  occ. eigenvalues --   -0.35150  -0.34859  -0.33728  -0.32644  -0.32419
 Alpha  occ. eigenvalues --   -0.30139  -0.27199  -0.26385  -0.26160  -0.23717
 Alpha virt. eigenvalues --   -0.05440  -0.01095   0.01219   0.04564   0.05802
 Alpha virt. eigenvalues --    0.06805   0.08294   0.09265   0.09777   0.10326
 Alpha virt. eigenvalues --    0.11263   0.12716   0.13224   0.14387   0.15239

 Mulliken charges:
               1
     1  O   -0.553316
     2  S    1.332492
     3  N   -0.798405
     4  C    0.512442
     5  N   -0.286213
     6  O   -0.414368
     7  C    0.388149
     8  C    0.078930
     9  C   -0.178427
    10  C   -0.153389
    11  C   -0.133919
    12  C   -0.149800
    13  C   -0.175777
    14  C   -0.277837
    15  N   -0.526774
    16  C   -0.327675
    17  C   -0.324595
    18  O   -0.575128
    19  H    0.429212
    20  H    0.164537
    21  H    0.160606
    22  H    0.159639
    23  H    0.160160
    24  H    0.165947
    25  H    0.199348
    26  H    0.185055
    27  H    0.194717
    28  H    0.179862
    29  H    0.199345
    30  H    0.174735
    31  H    0.190445
 Sum of Mulliken charges =   0.00000

 Dipole moment (field-independent basis, Debye):
    X=             -2.3232    Y=              2.2577    Z=              4.4644  Tot=              5.5159
 Quadrupole moment (field-independent basis, Debye-Ang):
   XX=            -98.9381   YY=           -107.7338   ZZ=           -112.0931
   XY=             -5.9609   XZ=             16.3895   YZ=              2.9840

 Normal termination of Gaussian 09 at Thu Aug  6 22:02:53 2020.
