 Gaussian 09, Revision D.01,

 -----------------
 #p b3lyp/6-31G(d)
 -----------------

 ----------------
 SM43.n.7.pdb.xyz
 ----------------
 Symbolic Z-matrix:
 Charge =  0 Multiplicity = 1

 SCF Done:  E(RB3LYP) =  -1214.98773295     A.U. after   16 cycles
 Normal termination of Gaussian 09 at Thu Aug  6 22:00:12 2020.
 Gaussian 09:  AM64L-G09RevD.01 24-Apr-2013

 ----------------------------------------------------------------------
 #p b3lyp/6-31G(d) scrf=(iefpcm,read,solvent=Water) geom=allcheck guess
 =read
 ----------------------------------------------------------------------

 Structure from the checkpoint file:  "SM43.n.7.pdb.xyz.mst.n.w.chk"
 ----------------
 SM43.n.7.pdb.xyz
 ----------------
 Charge =  0 Multiplicity = 1

                         Standard orientation:
 ---------------------------------------------------------------------
 Center     Atomic      Atomic             Coordinates (Angstroms)
 Number     Number       Type             X           Y           Z
 ---------------------------------------------------------------------
      1          8           0       -3.932255   -0.176071   -1.574544
      2         16           0       -2.872966   -0.322607   -0.579113
      3          7           0       -1.820674    0.966372   -0.802610
      4          6           0       -0.466222    0.976032   -0.463775
      5          7           0        0.077554    2.127002   -0.106046
      6          8           0        1.438723    1.836543    0.071352
      7          6           0        1.658219    0.520700   -0.168282
      8          6           0        3.023305    0.027222   -0.024598
      9          6           0        4.071663    0.904415    0.302928
     10          6           0        5.371837    0.420684    0.434889
     11          6           0        5.640549   -0.936852    0.242335
     12          6           0        4.600953   -1.812486   -0.084305
     13          6           0        3.300680   -1.335825   -0.216390
     14          6           0        0.480700   -0.081243   -0.519774
     15          7           0       -3.572893    0.006357    0.910932
     16          6           0       -4.906914   -0.588705    1.106326
     17          6           0       -2.673129   -0.165848    2.061948
     18          8           0       -2.046760   -1.535972   -0.575184
     19          1           0       -2.288528    1.871071   -0.746741
     20          1           0        3.860933    1.956084    0.451109
     21          1           0        6.174158    1.104329    0.687528
     22          1           0        6.653695   -1.309806    0.345492
     23          1           0        4.803538   -2.866424   -0.233712
     24          1           0        2.497099   -2.018929   -0.466555
     25          1           0        0.295690   -1.107693   -0.780293
     26          1           0       -5.532043   -0.369273    0.244002
     27          1           0       -5.337961   -0.114940    1.989507
     28          1           0       -4.865466   -1.671324    1.269148
     29          1           0       -1.752200    0.396420    1.905964
     30          1           0       -2.432613   -1.218227    2.252394
     31          1           0       -3.184279    0.247753    2.931236
 ---------------------------------------------------------------------

 SCF Done:  E(RB3LYP) =  -1215.00528856     A.U. after   11 cycles

 The electronic state is 1-A.
 Alpha  occ. eigenvalues --  -89.15147 -19.24305 -19.16627 -19.16480 -14.39558
 Alpha  occ. eigenvalues --  -14.38584 -14.38422 -10.28195 -10.27156 -10.22437
 Alpha  occ. eigenvalues --  -10.22174 -10.21756 -10.20320 -10.20218 -10.20199
 Alpha  occ. eigenvalues --  -10.19972 -10.19857 -10.19840  -8.17320  -6.13828
 Alpha  occ. eigenvalues --   -6.13737  -6.13712  -1.14866  -1.14201  -1.02470
 Alpha  occ. eigenvalues --   -0.97013  -0.94701  -0.87642  -0.85545  -0.81202
 Alpha  occ. eigenvalues --   -0.75585  -0.75362  -0.73003  -0.72135  -0.65528
 Alpha  occ. eigenvalues --   -0.64100  -0.61632  -0.59956  -0.59184  -0.55271
 Alpha  occ. eigenvalues --   -0.54794  -0.52136  -0.50516  -0.49348  -0.48310
 Alpha  occ. eigenvalues --   -0.48142  -0.46868  -0.46309  -0.45463  -0.44688
 Alpha  occ. eigenvalues --   -0.43357  -0.42601  -0.42522  -0.41076  -0.40081
 Alpha  occ. eigenvalues --   -0.39497  -0.38630  -0.37454  -0.36435  -0.36240
 Alpha  occ. eigenvalues --   -0.35150  -0.34897  -0.33659  -0.32514  -0.32404
 Alpha  occ. eigenvalues --   -0.30051  -0.27601  -0.26248  -0.25699  -0.23656
 Alpha virt. eigenvalues --   -0.05377  -0.01081   0.01513   0.04493   0.05952
 Alpha virt. eigenvalues --    0.06691   0.08158   0.09286   0.09982   0.10842
 Alpha virt. eigenvalues --    0.11338   0.12642   0.13123   0.13480   0.15309

 Mulliken charges:
               1
     1  O   -0.551919
     2  S    1.298421
     3  N   -0.789576
     4  C    0.508802
     5  N   -0.287766
     6  O   -0.414679
     7  C    0.389781
     8  C    0.080566
     9  C   -0.176598
    10  C   -0.149880
    11  C   -0.134540
    12  C   -0.153275
    13  C   -0.179740
    14  C   -0.274382
    15  N   -0.517582
    16  C   -0.326383
    17  C   -0.332826
    18  O   -0.557252
    19  H    0.429942
    20  H    0.165597
    21  H    0.160057
    22  H    0.159364
    23  H    0.160542
    24  H    0.165625
    25  H    0.199204
    26  H    0.199401
    27  H    0.190756
    28  H    0.174575
    29  H    0.189245
    30  H    0.179424
    31  H    0.195094
 Sum of Mulliken charges =   0.00000

 Dipole moment (field-independent basis, Debye):
    X=              1.1827    Y=             -1.1536    Z=              4.4659  Tot=              4.7617
 Quadrupole moment (field-independent basis, Debye-Ang):
   XX=            -86.8462   YY=           -113.0536   ZZ=           -112.2658
   XY=             -8.3036   XZ=            -16.1029   YZ=             -2.2979

 Normal termination of Gaussian 09 at Thu Aug  6 22:03:00 2020.
