 Gaussian 09, Revision D.01,

 -----------------
 #p b3lyp/6-31G(d)
 -----------------

 ----------------
 SM43.n.8.pdb.xyz
 ----------------
 Symbolic Z-matrix:
 Charge =  0 Multiplicity = 1

 SCF Done:  E(RB3LYP) =  -1214.98752672     A.U. after   16 cycles
 Normal termination of Gaussian 09 at Thu Aug  6 22:17:56 2020.
 Gaussian 09:  AM64L-G09RevD.01 24-Apr-2013

 ----------------------------------------------------------------------
 #p b3lyp/6-31G(d) scrf=(iefpcm,read,solvent=n-Octanol) geom=allcheck g
 uess=read
 ----------------------------------------------------------------------

 Structure from the checkpoint file:  "SM43.n.8.pdb.xyz.mst.n.o.chk"
 ----------------
 SM43.n.8.pdb.xyz
 ----------------
 Charge =  0 Multiplicity = 1

                         Standard orientation:
 ---------------------------------------------------------------------
 Center     Atomic      Atomic             Coordinates (Angstroms)
 Number     Number       Type             X           Y           Z
 ---------------------------------------------------------------------
      1          8           0        2.691871   -0.302848    1.829522
      2         16           0        3.084106   -0.611939    0.457268
      3          7           0        1.702104   -0.999415   -0.486269
      4          6           0        0.452038   -0.409966   -0.297077
      5          7           0        0.334854    0.886341   -0.086618
      6          8           0       -1.043133    1.107227    0.029080
      7          6           0       -1.707570   -0.059866   -0.140940
      8          6           0       -3.162791   -0.020726   -0.066472
      9          6           0       -3.907396   -1.203052   -0.208596
     10          6           0       -5.295939   -1.169503   -0.138100
     11          6           0       -5.958371    0.042170    0.075151
     12          6           0       -5.223498    1.220785    0.218004
     13          6           0       -3.833916    1.193145    0.147552
     14          6           0       -0.807154   -1.067005   -0.347448
     15          7           0        3.751290    0.752345   -0.190202
     16          6           0        4.089869    0.686261   -1.614929
     17          6           0        3.299225    2.061700    0.303493
     18          8           0        3.960771   -1.741778    0.154149
     19          1           0        1.688014   -1.993844   -0.688639
     20          1           0       -3.395754   -2.145597   -0.373267
     21          1           0       -5.861545   -2.087707   -0.248604
     22          1           0       -7.041208    0.066126    0.130931
     23          1           0       -5.734492    2.163888    0.383193
     24          1           0       -3.258457    2.104891    0.256569
     25          1           0       -0.998805   -2.116553   -0.503796
     26          1           0        4.511729   -0.291847   -1.839437
     27          1           0        4.844254    1.449384   -1.810750
     28          1           0        3.217598    0.868621   -2.252771
     29          1           0        3.222525    2.023749    1.387329
     30          1           0        2.332393    2.346060   -0.121415
     31          1           0        4.067258    2.784497    0.020165
 ---------------------------------------------------------------------

 SCF Done:  E(RB3LYP) =  -1215.00928803     A.U. after   11 cycles

 The electronic state is 1-A.
 Alpha  occ. eigenvalues --  -89.14292 -19.24229 -19.15863 -19.15532 -14.38848
 Alpha  occ. eigenvalues --  -14.38290 -14.38190 -10.27729 -10.27229 -10.22466
 Alpha  occ. eigenvalues --  -10.21904 -10.21708 -10.20650 -10.20619 -10.20350
 Alpha  occ. eigenvalues --  -10.20218 -10.20135 -10.20077  -8.16465  -6.12979
 Alpha  occ. eigenvalues --   -6.12878  -6.12857  -1.14889  -1.13483  -1.01842
 Alpha  occ. eigenvalues --   -0.96135  -0.94617  -0.87753  -0.85304  -0.81282
 Alpha  occ. eigenvalues --   -0.75817  -0.75587  -0.72945  -0.72031  -0.65226
 Alpha  occ. eigenvalues --   -0.64776  -0.61930  -0.60481  -0.57101  -0.55553
 Alpha  occ. eigenvalues --   -0.54029  -0.52062  -0.50606  -0.49074  -0.48443
 Alpha  occ. eigenvalues --   -0.48224  -0.47186  -0.46362  -0.45217  -0.44587
 Alpha  occ. eigenvalues --   -0.43724  -0.43110  -0.41926  -0.41214  -0.39961
 Alpha  occ. eigenvalues --   -0.39158  -0.38684  -0.37402  -0.36527  -0.35794
 Alpha  occ. eigenvalues --   -0.35394  -0.33930  -0.32830  -0.31735  -0.31378
 Alpha  occ. eigenvalues --   -0.30153  -0.27192  -0.26391  -0.25564  -0.23721
 Alpha virt. eigenvalues --   -0.05461  -0.01239   0.01403   0.04704   0.06311
 Alpha virt. eigenvalues --    0.07801   0.08197   0.08429   0.09341   0.10977
 Alpha virt. eigenvalues --    0.11258   0.12097   0.12913   0.14061   0.14769

 Mulliken charges:
               1
     1  O   -0.533159
     2  S    1.334935
     3  N   -0.823377
     4  C    0.534964
     5  N   -0.247465
     6  O   -0.409553
     7  C    0.391159
     8  C    0.082226
     9  C   -0.173482
    10  C   -0.145513
    11  C   -0.127635
    12  C   -0.141861
    13  C   -0.170418
    14  C   -0.303739
    15  N   -0.510327
    16  C   -0.325629
    17  C   -0.325640
    18  O   -0.564213
    19  H    0.394587
    20  H    0.153084
    21  H    0.152568
    22  H    0.151514
    23  H    0.152474
    24  H    0.163336
    25  H    0.181879
    26  H    0.196156
    27  H    0.182268
    28  H    0.173400
    29  H    0.194983
    30  H    0.190763
    31  H    0.171713
 Sum of Mulliken charges =   0.00000

 Dipole moment (field-independent basis, Debye):
    X=             -4.5687    Y=             -0.1627    Z=             -3.9415  Tot=              6.0362
 Quadrupole moment (field-independent basis, Debye-Ang):
   XX=            -99.0360   YY=           -101.2920   ZZ=           -116.0948
   XY=             14.2414   XZ=            -11.9725   YZ=              3.5891

 Normal termination of Gaussian 09 at Thu Aug  6 22:20:37 2020.
