 Gaussian 09, Revision D.01,

 -----------------
 #p b3lyp/6-31G(d)
 -----------------

 ----------------
 SM44.n.7.pdb.xyz
 ----------------
 Symbolic Z-matrix:
 Charge =  0 Multiplicity = 1

 SCF Done:  E(RB3LYP) =  -1116.51406070     A.U. after   15 cycles
 Normal termination of Gaussian 09 at Thu Aug  6 21:58:51 2020.
 Gaussian 09:  AM64L-G09RevD.01 24-Apr-2013

 ----------------------------------------------------------------------
 #p b3lyp/6-31G(d) scrf=(iefpcm,read,solvent=Water) geom=allcheck guess
 =read
 ----------------------------------------------------------------------

 Structure from the checkpoint file:  "SM44.n.7.pdb.xyz.mst.n.w.chk"
 ----------------
 SM44.n.7.pdb.xyz
 ----------------
 Charge =  0 Multiplicity = 1

                         Standard orientation:
 ---------------------------------------------------------------------
 Center     Atomic      Atomic             Coordinates (Angstroms)
 Number     Number       Type             X           Y           Z
 ---------------------------------------------------------------------
      1          8           0        2.909091    0.225242    1.637387
      2         16           0        3.460324   -0.188785    0.337287
      3          7           0        2.222053   -0.731861   -0.707037
      4          6           0        0.924359   -0.213506   -0.553196
      5          7           0        0.659088    1.103290   -0.769263
      6          7           0       -0.621457    1.310847   -0.597552
      7          6           0       -0.250758   -0.858212   -0.235822
      8          7           0       -1.187962    0.123545   -0.287559
      9          6           0       -2.591948    0.018173   -0.070073
     10          6           0       -3.229202   -1.206470   -0.277356
     11          6           0       -4.601652   -1.302980   -0.053965
     12          6           0       -5.330226   -0.186040    0.358823
     13          6           0       -4.679588    1.033480    0.554809
     14          6           0       -3.305562    1.143528    0.348746
     15          6           0        4.055420    1.268170   -0.513286
     16          8           0        4.477170   -1.249685    0.292751
     17          1           0        2.260908   -1.751046   -0.760439
     18          1           0       -0.476865   -1.878989    0.019793
     19          1           0       -2.665181   -2.065014   -0.620413
     20          1           0       -5.100990   -2.252756   -0.213041
     21          1           0       -6.398618   -0.265009    0.527564
     22          1           0       -5.238643    1.903981    0.879472
     23          1           0       -2.786560    2.078481    0.510399
     24          1           0        3.216293    1.954045   -0.632601
     25          1           0        4.453626    0.965374   -1.480993
     26          1           0        4.833661    1.709430    0.110357
 ---------------------------------------------------------------------

 SCF Done:  E(RB3LYP) =  -1116.53777113     A.U. after   12 cycles

 The electronic state is 1-A.
 Alpha  occ. eigenvalues --  -89.12657 -19.15844 -19.15805 -14.44776 -14.40576
 Alpha  occ. eigenvalues --  -14.38509 -14.37239 -10.26668 -10.25210 -10.24401
 Alpha  occ. eigenvalues --  -10.22391 -10.20769 -10.20503 -10.20294 -10.20221
 Alpha  occ. eigenvalues --  -10.19976  -8.15261  -6.11777  -6.11684  -6.11508
 Alpha  occ. eigenvalues --   -1.12385  -1.11481  -1.01319  -0.95970  -0.93017
 Alpha  occ. eigenvalues --   -0.86197  -0.81413  -0.77829  -0.76549  -0.75956
 Alpha  occ. eigenvalues --   -0.66993  -0.66435  -0.63239  -0.61059  -0.58675
 Alpha  occ. eigenvalues --   -0.56543  -0.53343  -0.52726  -0.49962  -0.49525
 Alpha  occ. eigenvalues --   -0.49007  -0.48182  -0.47332  -0.45561  -0.44529
 Alpha  occ. eigenvalues --   -0.43839  -0.43449  -0.43325  -0.39075  -0.37520
 Alpha  occ. eigenvalues --   -0.36562  -0.36170  -0.35655  -0.34818  -0.32978
 Alpha  occ. eigenvalues --   -0.32647  -0.31697  -0.31140  -0.29426  -0.26596
 Alpha  occ. eigenvalues --   -0.26281  -0.24053
 Alpha virt. eigenvalues --   -0.04550  -0.01567   0.01139   0.02285   0.06283
 Alpha virt. eigenvalues --    0.07347   0.08786   0.09216   0.10442   0.11598
 Alpha virt. eigenvalues --    0.11946   0.12949   0.14936   0.15077   0.15415

 Mulliken charges:
               1
     1  O   -0.558549
     2  S    1.173816
     3  N   -0.800457
     4  C    0.413757
     5  N   -0.366163
     6  N   -0.103531
     7  C    0.038664
     8  N   -0.352247
     9  C    0.328905
    10  C   -0.170650
    11  C   -0.156684
    12  C   -0.131676
    13  C   -0.155301
    14  C   -0.155282
    15  C   -0.624348
    16  O   -0.570211
    17  H    0.422675
    18  H    0.227829
    19  H    0.175107
    20  H    0.165250
    21  H    0.160826
    22  H    0.164528
    23  H    0.175304
    24  H    0.234737
    25  H    0.229754
    26  H    0.233946
 Sum of Mulliken charges =   0.00000

 Dipole moment (field-independent basis, Debye):
    X=             -5.3143    Y=             -2.8989    Z=             -2.3371  Tot=              6.4890
 Quadrupole moment (field-independent basis, Debye-Ang):
   XX=            -87.6105   YY=            -90.8485   ZZ=           -106.5469
   XY=             13.3089   XZ=            -13.3191   YZ=              5.0143

 Normal termination of Gaussian 09 at Thu Aug  6 22:01:01 2020.
