 Gaussian 09, Revision D.01,

 -----------------
 #p b3lyp/6-31G(d)
 -----------------

 -----------------
 SM44.n.10.pdb.xyz
 -----------------
 Symbolic Z-matrix:
 Charge =  0 Multiplicity = 1

 SCF Done:  E(RB3LYP) =  -1116.50353810     A.U. after   15 cycles
 Normal termination of Gaussian 09 at Thu Aug  6 21:59:03 2020.
 Gaussian 09:  AM64L-G09RevD.01 24-Apr-2013

 ----------------------------------------------------------------------
 #p b3lyp/6-31G(d) scrf=(iefpcm,read,solvent=Water) geom=allcheck guess
 =read
 ----------------------------------------------------------------------

 Structure from the checkpoint file:  "SM44.n.10.pdb.xyz.mst.n.w.chk"
 -----------------
 SM44.n.10.pdb.xyz
 -----------------
 Charge =  0 Multiplicity = 1

                         Standard orientation:
 ---------------------------------------------------------------------
 Center     Atomic      Atomic             Coordinates (Angstroms)
 Number     Number       Type             X           Y           Z
 ---------------------------------------------------------------------
      1          8           0        4.703344   -0.600308   -0.434779
      2         16           0        3.478267   -0.095434    0.194474
      3          7           0        2.279744   -0.258212   -0.995000
      4          6           0        0.958210    0.144538   -0.717960
      5          7           0        0.596875    1.457185   -0.711652
      6          7           0       -0.685046    1.538337   -0.471419
      7          6           0       -0.159139   -0.626288   -0.476003
      8          7           0       -1.160222    0.275323   -0.338122
      9          6           0       -2.543098    0.040324   -0.089128
     10          6           0       -3.308367    1.040537    0.513222
     11          6           0       -4.661417    0.807689    0.750957
     12          6           0       -5.241071   -0.414484    0.402847
     13          6           0       -4.462235   -1.407160   -0.192857
     14          6           0       -3.109779   -1.184150   -0.448167
     15          6           0        3.030295   -1.184863    1.548448
     16          8           0        3.422570    1.287887    0.678978
     17          1           0        2.351312   -1.172482   -1.443747
     18          1           0       -0.301058   -1.689908   -0.389442
     19          1           0       -2.842205    1.977253    0.789553
     20          1           0       -5.259718    1.581760    1.218082
     21          1           0       -6.293846   -0.591600    0.595370
     22          1           0       -4.904856   -2.355815   -0.470300
     23          1           0       -2.508428   -1.945713   -0.930134
     24          1           0        3.022523   -2.210423    1.182314
     25          1           0        2.049347   -0.894342    1.924421
     26          1           0        3.787496   -1.057713    2.323899
 ---------------------------------------------------------------------

 SCF Done:  E(RB3LYP) =  -1116.53661918     A.U. after   12 cycles

 The electronic state is 1-A.
 Alpha  occ. eigenvalues --  -89.12646 -19.15706 -19.15696 -14.44883 -14.40654
 Alpha  occ. eigenvalues --  -14.38689 -14.37327 -10.26696 -10.25261 -10.24767
 Alpha  occ. eigenvalues --  -10.22632 -10.20823 -10.20526 -10.20303 -10.20250
 Alpha  occ. eigenvalues --  -10.20009  -8.15231  -6.11732  -6.11654  -6.11503
 Alpha  occ. eigenvalues --   -1.12532  -1.11539  -1.01434  -0.96025  -0.93274
 Alpha  occ. eigenvalues --   -0.86274  -0.81475  -0.77736  -0.76521  -0.75966
 Alpha  occ. eigenvalues --   -0.67031  -0.66624  -0.63259  -0.61071  -0.58920
 Alpha  occ. eigenvalues --   -0.56678  -0.54085  -0.52767  -0.50012  -0.49932
 Alpha  occ. eigenvalues --   -0.48886  -0.48481  -0.47167  -0.45574  -0.44694
 Alpha  occ. eigenvalues --   -0.43989  -0.43535  -0.43476  -0.39042  -0.37418
 Alpha  occ. eigenvalues --   -0.36601  -0.36128  -0.35047  -0.34270  -0.33173
 Alpha  occ. eigenvalues --   -0.32192  -0.32052  -0.31520  -0.29153  -0.26888
 Alpha  occ. eigenvalues --   -0.26540  -0.24508
 Alpha virt. eigenvalues --   -0.04651  -0.01606   0.00964   0.01899   0.06672
 Alpha virt. eigenvalues --    0.07209   0.08884   0.09679   0.10142   0.10756
 Alpha virt. eigenvalues --    0.12196   0.13530   0.14922   0.15085   0.15388

 Mulliken charges:
               1
     1  O   -0.564597
     2  S    1.160714
     3  N   -0.778717
     4  C    0.376578
     5  N   -0.348260
     6  N   -0.104580
     7  C    0.048533
     8  N   -0.353222
     9  C    0.330283
    10  C   -0.155638
    11  C   -0.155026
    12  C   -0.131666
    13  C   -0.156111
    14  C   -0.171047
    15  C   -0.632097
    16  O   -0.563615
    17  H    0.425255
    18  H    0.231021
    19  H    0.175981
    20  H    0.164909
    21  H    0.161054
    22  H    0.165524
    23  H    0.175096
    24  H    0.230366
    25  H    0.227769
    26  H    0.241492
 Sum of Mulliken charges =   0.00000

 Dipole moment (field-independent basis, Debye):
    X=             -7.9721    Y=             -9.8611    Z=              2.2269  Tot=             12.8746
 Quadrupole moment (field-independent basis, Debye-Ang):
   XX=           -109.1709   YY=            -97.6466   ZZ=            -95.4764
   XY=            -11.3707   XZ=              4.8795   YZ=              3.7111

 Normal termination of Gaussian 09 at Thu Aug  6 22:01:31 2020.
