 Gaussian 09, Revision D.01,

 -----------------
 #p b3lyp/6-31G(d)
 -----------------

 ----------------
 SM44.n.3.pdb.xyz
 ----------------
 Symbolic Z-matrix:
 Charge =  0 Multiplicity = 1

 SCF Done:  E(RB3LYP) =  -1116.50338215     A.U. after   16 cycles
 Normal termination of Gaussian 09 at Thu Aug  6 21:59:30 2020.
 Gaussian 09:  AM64L-G09RevD.01 24-Apr-2013

 ----------------------------------------------------------------------
 #p b3lyp/6-31G(d) scrf=(iefpcm,read,solvent=Water) geom=allcheck guess
 =read
 ----------------------------------------------------------------------

 Structure from the checkpoint file:  "SM44.n.3.pdb.xyz.mst.n.w.chk"
 ----------------
 SM44.n.3.pdb.xyz
 ----------------
 Charge =  0 Multiplicity = 1

                         Standard orientation:
 ---------------------------------------------------------------------
 Center     Atomic      Atomic             Coordinates (Angstroms)
 Number     Number       Type             X           Y           Z
 ---------------------------------------------------------------------
      1          8           0       -4.715589    0.504868   -0.465167
      2         16           0       -3.469729    0.106289    0.201943
      3          7           0       -2.287236    0.164431   -1.012755
      4          6           0       -0.961746   -0.209670   -0.718525
      5          7           0       -0.588286   -1.518048   -0.648220
      6          7           0        0.693764   -1.575993   -0.404553
      7          6           0        0.149166    0.581016   -0.512444
      8          7           0        1.159035   -0.304508   -0.330584
      9          6           0        2.538803   -0.045927   -0.089832
     10          6           0        3.084184    1.185616   -0.456444
     11          6           0        4.434144    1.432648   -0.208266
     12          6           0        5.231542    0.455474    0.389508
     13          6           0        4.673024   -0.773073    0.744269
     14          6           0        3.323889   -1.030432    0.513915
     15          6           0       -3.042742    1.354428    1.419328
     16          8           0       -3.369699   -1.213179    0.835007
     17          1           0       -2.370162    1.030768   -1.548114
     18          1           0        0.282004    1.648678   -0.479005
     19          1           0        2.469317    1.936731   -0.937192
     20          1           0        4.859331    2.388754   -0.491345
     21          1           0        6.282065    0.650495    0.576931
     22          1           0        5.285825   -1.536634    1.212179
     23          1           0        2.875473   -1.974188    0.796081
     24          1           0       -3.057087    2.329910    0.936456
     25          1           0       -2.055618    1.128552    1.821849
     26          1           0       -3.795705    1.301158    2.206084
 ---------------------------------------------------------------------

 SCF Done:  E(RB3LYP) =  -1116.53652081     A.U. after   12 cycles

 The electronic state is 1-A.
 Alpha  occ. eigenvalues --  -89.12637 -19.15716 -19.15668 -14.44911 -14.40666
 Alpha  occ. eigenvalues --  -14.38655 -14.37347 -10.26678 -10.25282 -10.24800
 Alpha  occ. eigenvalues --  -10.22645 -10.20819 -10.20506 -10.20318 -10.20231
 Alpha  occ. eigenvalues --  -10.19990  -8.15220  -6.11721  -6.11643  -6.11491
 Alpha  occ. eigenvalues --   -1.12481  -1.11535  -1.01388  -0.95999  -0.93267
 Alpha  occ. eigenvalues --   -0.86278  -0.81467  -0.77760  -0.76532  -0.75947
 Alpha  occ. eigenvalues --   -0.67050  -0.66609  -0.63243  -0.61019  -0.58937
 Alpha  occ. eigenvalues --   -0.56699  -0.54131  -0.52759  -0.49991  -0.49920
 Alpha  occ. eigenvalues --   -0.48870  -0.48521  -0.47177  -0.45592  -0.44682
 Alpha  occ. eigenvalues --   -0.44038  -0.43541  -0.43466  -0.39045  -0.37415
 Alpha  occ. eigenvalues --   -0.36595  -0.36075  -0.35044  -0.34198  -0.33115
 Alpha  occ. eigenvalues --   -0.32176  -0.32008  -0.31519  -0.29119  -0.26955
 Alpha  occ. eigenvalues --   -0.26537  -0.24528
 Alpha virt. eigenvalues --   -0.04719  -0.01605   0.00974   0.01941   0.06669
 Alpha virt. eigenvalues --    0.07185   0.08822   0.09637   0.10083   0.10739
 Alpha virt. eigenvalues --    0.12181   0.13654   0.14908   0.15178   0.15382

 Mulliken charges:
               1
     1  O   -0.565564
     2  S    1.160097
     3  N   -0.780685
     4  C    0.376536
     5  N   -0.346873
     6  N   -0.103665
     7  C    0.050520
     8  N   -0.356420
     9  C    0.333890
    10  C   -0.172211
    11  C   -0.156565
    12  C   -0.131571
    13  C   -0.154847
    14  C   -0.156493
    15  C   -0.630961
    16  O   -0.564154
    17  H    0.425381
    18  H    0.231127
    19  H    0.174891
    20  H    0.165575
    21  H    0.160949
    22  H    0.164625
    23  H    0.176462
    24  H    0.230707
    25  H    0.227608
    26  H    0.241640
 Sum of Mulliken charges =   0.00000

 Dipole moment (field-independent basis, Debye):
    X=              7.8395    Y=             10.1437    Z=              1.4184  Tot=             12.8982
 Quadrupole moment (field-independent basis, Debye-Ang):
   XX=           -108.8859   YY=            -97.4111   ZZ=            -95.7492
   XY=            -12.3627   XZ=             -3.3393   YZ=             -3.1580

 Normal termination of Gaussian 09 at Thu Aug  6 22:02:01 2020.
