 Gaussian 09, Revision D.01,

 -----------------
 #p b3lyp/6-31G(d)
 -----------------

 ----------------
 SM44.n.2.pdb.xyz
 ----------------
 Symbolic Z-matrix:
 Charge =  0 Multiplicity = 1

 SCF Done:  E(RB3LYP) =  -1116.51432940     A.U. after   15 cycles
 Normal termination of Gaussian 09 at Thu Aug  6 22:17:19 2020.
 Gaussian 09:  AM64L-G09RevD.01 24-Apr-2013

 ----------------------------------------------------------------------
 #p b3lyp/6-31G(d) scrf=(iefpcm,read,solvent=n-Octanol) geom=allcheck g
 uess=read
 ----------------------------------------------------------------------

 Structure from the checkpoint file:  "SM44.n.2.pdb.xyz.mst.n.o.chk"
 ----------------
 SM44.n.2.pdb.xyz
 ----------------
 Charge =  0 Multiplicity = 1

                         Standard orientation:
 ---------------------------------------------------------------------
 Center     Atomic      Atomic             Coordinates (Angstroms)
 Number     Number       Type             X           Y           Z
 ---------------------------------------------------------------------
      1          8           0        2.988631    0.212359    1.650229
      2         16           0        3.483749   -0.171820    0.323850
      3          7           0        2.218717   -0.784335   -0.653645
      4          6           0        0.923200   -0.266799   -0.506743
      5          7           0        0.678073    1.059634   -0.692318
      6          7           0       -0.598457    1.282286   -0.533717
      7          6           0       -0.265075   -0.903337   -0.223194
      8          7           0       -1.188436    0.096384   -0.264727
      9          6           0       -2.595338    0.010160   -0.066675
     10          6           0       -3.241483   -1.215075   -0.236374
     11          6           0       -4.617378   -1.293434   -0.029737
     12          6           0       -5.341695   -0.156104    0.331061
     13          6           0       -4.682819    1.065067    0.488784
     14          6           0       -3.306048    1.156317    0.297577
     15          6           0        3.908610    1.319236   -0.569386
     16          8           0        4.548744   -1.172452    0.201197
     17          1           0        2.283887   -1.800001   -0.688699
     18          1           0       -0.510844   -1.924708    0.007015
     19          1           0       -2.680439   -2.090803   -0.539367
     20          1           0       -5.121278   -2.243689   -0.159394
     21          1           0       -6.413069   -0.220827    0.487889
     22          1           0       -5.239617    1.951554    0.771012
     23          1           0       -2.776761    2.090916    0.425132
     24          1           0        2.994960    1.904701   -0.672789
     25          1           0        4.305049    1.038804   -1.544356
     26          1           0        4.658000    1.849952    0.019513
 ---------------------------------------------------------------------

 SCF Done:  E(RB3LYP) =  -1116.53563797     A.U. after   11 cycles

 The electronic state is 1-A.
 Alpha  occ. eigenvalues --  -89.12314 -19.15422 -19.15320 -14.44807 -14.40488
 Alpha  occ. eigenvalues --  -14.38695 -14.37040 -10.26855 -10.25452 -10.24621
 Alpha  occ. eigenvalues --  -10.22364 -10.21113 -10.20683 -10.20637 -10.20520
 Alpha  occ. eigenvalues --  -10.20280  -8.14918  -6.11446  -6.11325  -6.11173
 Alpha  occ. eigenvalues --   -1.12178  -1.11486  -1.01020  -0.96136  -0.93124
 Alpha  occ. eigenvalues --   -0.86409  -0.81478  -0.77847  -0.76779  -0.76215
 Alpha  occ. eigenvalues --   -0.67228  -0.66500  -0.63414  -0.61323  -0.58860
 Alpha  occ. eigenvalues --   -0.56904  -0.53532  -0.52784  -0.50214  -0.49505
 Alpha  occ. eigenvalues --   -0.48866  -0.48430  -0.47166  -0.45849  -0.44863
 Alpha  occ. eigenvalues --   -0.44069  -0.43789  -0.43173  -0.39338  -0.37804
 Alpha  occ. eigenvalues --   -0.36601  -0.36229  -0.35508  -0.34698  -0.32701
 Alpha  occ. eigenvalues --   -0.32271  -0.31563  -0.30696  -0.28985  -0.26817
 Alpha  occ. eigenvalues --   -0.26361  -0.23904
 Alpha virt. eigenvalues --   -0.04704  -0.01811   0.01331   0.02329   0.06069
 Alpha virt. eigenvalues --    0.07287   0.08243   0.09318   0.10487   0.10947
 Alpha virt. eigenvalues --    0.11903   0.12119   0.14469   0.14911   0.15253

 Mulliken charges:
               1
     1  O   -0.531397
     2  S    1.172004
     3  N   -0.801653
     4  C    0.430489
     5  N   -0.345298
     6  N   -0.077336
     7  C    0.017307
     8  N   -0.365161
     9  C    0.331661
    10  C   -0.170186
    11  C   -0.148938
    12  C   -0.125171
    13  C   -0.148173
    14  C   -0.151167
    15  C   -0.637357
    16  O   -0.547960
    17  H    0.392443
    18  H    0.213549
    19  H    0.162372
    20  H    0.157339
    21  H    0.153207
    22  H    0.157125
    23  H    0.175998
    24  H    0.245347
    25  H    0.219518
    26  H    0.221435
 Sum of Mulliken charges =   0.00000

 Dipole moment (field-independent basis, Debye):
    X=             -5.4312    Y=             -2.2597    Z=             -2.1634  Tot=              6.2678
 Quadrupole moment (field-independent basis, Debye-Ang):
   XX=            -91.4442   YY=            -90.1532   ZZ=           -106.1743
   XY=             11.7360   XZ=            -11.8172   YZ=              3.4841

 Normal termination of Gaussian 09 at Thu Aug  6 22:19:21 2020.
