 Gaussian 09, Revision D.01,

 -----------------
 #p b3lyp/6-31G(d)
 -----------------

 -----------------
 SM44.n.10.pdb.xyz
 -----------------
 Symbolic Z-matrix:
 Charge =  0 Multiplicity = 1

 SCF Done:  E(RB3LYP) =  -1116.50486038     A.U. after   15 cycles
 Normal termination of Gaussian 09 at Thu Aug  6 22:16:45 2020.
 Gaussian 09:  AM64L-G09RevD.01 24-Apr-2013

 ----------------------------------------------------------------------
 #p b3lyp/6-31G(d) scrf=(iefpcm,read,solvent=n-Octanol) geom=allcheck g
 uess=read
 ----------------------------------------------------------------------

 Structure from the checkpoint file:  "SM44.n.10.pdb.xyz.mst.n.o.chk"
 -----------------
 SM44.n.10.pdb.xyz
 -----------------
 Charge =  0 Multiplicity = 1

                         Standard orientation:
 ---------------------------------------------------------------------
 Center     Atomic      Atomic             Coordinates (Angstroms)
 Number     Number       Type             X           Y           Z
 ---------------------------------------------------------------------
      1          8           0       -4.701575    0.528605   -0.480133
      2         16           0       -3.475931    0.114496    0.205000
      3          7           0       -2.292969    0.089266   -1.007875
      4          6           0       -0.962799   -0.265100   -0.715747
      5          7           0       -0.572306   -1.567206   -0.614231
      6          7           0        0.705494   -1.606010   -0.371424
      7          6           0        0.139169    0.544089   -0.528899
      8          7           0        1.159264   -0.324585   -0.328780
      9          6           0        2.536240   -0.047549   -0.093918
     10          6           0        3.332184   -1.021366    0.511756
     11          6           0        4.677884   -0.748193    0.742502
     12          6           0        5.221337    0.487002    0.384985
     13          6           0        4.413073    1.450984   -0.217453
     14          6           0        3.068189    1.187923   -0.465348
     15          6           0       -2.994208    1.417306    1.348134
     16          8           0       -3.399714   -1.155981    0.921560
     17          1           0       -2.419826    0.855229   -1.664781
     18          1           0        0.263057    1.613349   -0.520587
     19          1           0        2.890633   -1.969198    0.788861
     20          1           0        5.301083   -1.503024    1.211103
     21          1           0        6.268623    0.696388    0.571841
     22          1           0        4.828316    2.410054   -0.503704
     23          1           0        2.445023    1.928294   -0.953670
     24          1           0       -3.003216    2.372031    0.822431
     25          1           0       -2.003240    1.193270    1.741841
     26          1           0       -3.728042    1.419852    2.155342
 ---------------------------------------------------------------------

 SCF Done:  E(RB3LYP) =  -1116.53148078     A.U. after   11 cycles

 The electronic state is 1-A.
 Alpha  occ. eigenvalues --  -89.12367 -19.15277 -19.15251 -14.44908 -14.40515
 Alpha  occ. eigenvalues --  -14.38643 -14.37038 -10.26734 -10.25565 -10.25160
 Alpha  occ. eigenvalues --  -10.23037 -10.21240 -10.20747 -10.20715 -10.20599
 Alpha  occ. eigenvalues --  -10.20352  -8.14923  -6.11435  -6.11333  -6.11208
 Alpha  occ. eigenvalues --   -1.12295  -1.11513  -1.01207  -0.95982  -0.93368
 Alpha  occ. eigenvalues --   -0.86587  -0.81529  -0.77891  -0.76794  -0.76252
 Alpha  occ. eigenvalues --   -0.67235  -0.66679  -0.63426  -0.61316  -0.59299
 Alpha  occ. eigenvalues --   -0.57159  -0.54285  -0.53006  -0.50312  -0.49900
 Alpha  occ. eigenvalues --   -0.49048  -0.48664  -0.47179  -0.45927  -0.45070
 Alpha  occ. eigenvalues --   -0.44424  -0.43913  -0.43563  -0.39214  -0.37829
 Alpha  occ. eigenvalues --   -0.36659  -0.36030  -0.34682  -0.33808  -0.32721
 Alpha  occ. eigenvalues --   -0.31922  -0.31643  -0.31150  -0.28457  -0.27244
 Alpha  occ. eigenvalues --   -0.26847  -0.24678
 Alpha virt. eigenvalues --   -0.04865  -0.01904   0.01146   0.01700   0.06031
 Alpha virt. eigenvalues --    0.07286   0.08077   0.09756   0.10089   0.10248
 Alpha virt. eigenvalues --    0.11555   0.13121   0.14363   0.14767   0.14888

 Mulliken charges:
               1
     1  O   -0.544587
     2  S    1.165398
     3  N   -0.779922
     4  C    0.373173
     5  N   -0.303100
     6  N   -0.081166
     7  C    0.033064
     8  N   -0.366019
     9  C    0.330799
    10  C   -0.151646
    11  C   -0.147880
    12  C   -0.124674
    13  C   -0.148779
    14  C   -0.170096
    15  C   -0.633495
    16  O   -0.531905
    17  H    0.393526
    18  H    0.213330
    19  H    0.177825
    20  H    0.157919
    21  H    0.153829
    22  H    0.157580
    23  H    0.161908
    24  H    0.215240
    25  H    0.217432
    26  H    0.232247
 Sum of Mulliken charges =   0.00000

 Dipole moment (field-independent basis, Debye):
    X=              7.2647    Y=              8.5368    Z=              0.8104  Tot=             11.2388
 Quadrupole moment (field-independent basis, Debye-Ang):
   XX=           -107.4836   YY=            -97.7403   ZZ=            -95.9367
   XY=            -10.2739   XZ=             -1.5089   YZ=             -2.5832

 Normal termination of Gaussian 09 at Thu Aug  6 22:18:43 2020.
