 Gaussian 09, Revision D.01,

 -----------------
 #p b3lyp/6-31G(d)
 -----------------

 ----------------
 SM44.n.6.pdb.xyz
 ----------------
 Symbolic Z-matrix:
 Charge =  0 Multiplicity = 1

 SCF Done:  E(RB3LYP) =  -1116.51196464     A.U. after   15 cycles
 Normal termination of Gaussian 09 at Thu Aug  6 21:59:12 2020.
 Gaussian 09:  AM64L-G09RevD.01 24-Apr-2013

 ----------------------------------------------------------------------
 #p b3lyp/6-31G(d) scrf=(iefpcm,read,solvent=Water) geom=allcheck guess
 =read
 ----------------------------------------------------------------------

 Structure from the checkpoint file:  "SM44.n.6.pdb.xyz.mst.n.w.chk"
 ----------------
 SM44.n.6.pdb.xyz
 ----------------
 Charge =  0 Multiplicity = 1

                         Standard orientation:
 ---------------------------------------------------------------------
 Center     Atomic      Atomic             Coordinates (Angstroms)
 Number     Number       Type             X           Y           Z
 ---------------------------------------------------------------------
      1          8           0       -2.466855    1.377534   -0.825271
      2         16           0       -3.307817    0.319585   -0.250419
      3          7           0       -2.308773   -0.577890    0.809533
      4          6           0       -0.956276   -0.736750    0.455663
      5          7           0       -0.464187   -1.896760   -0.058965
      6          7           0        0.824005   -1.765892   -0.239129
      7          6           0        0.078984    0.163209    0.595224
      8          7           0        1.164807   -0.512071    0.142126
      9          6           0        2.514839   -0.064999    0.049227
     10          6           0        2.786157    1.303974   -0.011047
     11          6           0        4.111042    1.731908   -0.093440
     12          6           0        5.152144    0.801451   -0.127548
     13          6           0        4.863377   -0.563745   -0.074077
     14          6           0        3.546133   -1.006354    0.021288
     15          6           0       -4.472749    1.028718    0.906558
     16          8           0       -4.039985   -0.575891   -1.161527
     17          1           0       -2.759327   -1.470233    1.026088
     18          1           0        0.120383    1.168515    0.974748
     19          1           0        1.976115    2.023354   -0.004005
     20          1           0        4.324317    2.793064   -0.138747
     21          1           0        6.180923    1.138676   -0.196433
     22          1           0        5.667580   -1.290814   -0.097017
     23          1           0        3.310071   -2.060033    0.077451
     24          1           0       -3.924805    1.658133    1.605431
     25          1           0       -4.987931    0.220331    1.425772
     26          1           0       -5.180418    1.616322    0.321751
 ---------------------------------------------------------------------

 SCF Done:  E(RB3LYP) =  -1116.53675555     A.U. after   11 cycles

 The electronic state is 1-A.
 Alpha  occ. eigenvalues --  -89.12529 -19.15818 -19.15716 -14.44739 -14.40448
 Alpha  occ. eigenvalues --  -14.38348 -14.37174 -10.26431 -10.25215 -10.24432
 Alpha  occ. eigenvalues --  -10.22583 -10.20775 -10.20455 -10.20283 -10.20200
 Alpha  occ. eigenvalues --  -10.19968  -8.15163  -6.11668  -6.11584  -6.11419
 Alpha  occ. eigenvalues --   -1.12345  -1.11375  -1.01237  -0.95894  -0.92919
 Alpha  occ. eigenvalues --   -0.86167  -0.81530  -0.77923  -0.76380  -0.75798
 Alpha  occ. eigenvalues --   -0.66982  -0.66083  -0.62577  -0.60483  -0.60097
 Alpha  occ. eigenvalues --   -0.56657  -0.53691  -0.52066  -0.49916  -0.49662
 Alpha  occ. eigenvalues --   -0.48965  -0.48104  -0.46859  -0.45577  -0.44358
 Alpha  occ. eigenvalues --   -0.43797  -0.43468  -0.43419  -0.38886  -0.37333
 Alpha  occ. eigenvalues --   -0.37242  -0.36044  -0.35469  -0.34180  -0.33255
 Alpha  occ. eigenvalues --   -0.32571  -0.31648  -0.31124  -0.29264  -0.26573
 Alpha  occ. eigenvalues --   -0.26227  -0.24218
 Alpha virt. eigenvalues --   -0.04536  -0.01563   0.00975   0.02238   0.06626
 Alpha virt. eigenvalues --    0.07715   0.08919   0.09051   0.09902   0.11354
 Alpha virt. eigenvalues --    0.11587   0.13707   0.14786   0.15202   0.15460

 Mulliken charges:
               1
     1  O   -0.571283
     2  S    1.166049
     3  N   -0.788618
     4  C    0.396016
     5  N   -0.364468
     6  N   -0.107858
     7  C    0.059516
     8  N   -0.356979
     9  C    0.331763
    10  C   -0.171877
    11  C   -0.156617
    12  C   -0.132121
    13  C   -0.155243
    14  C   -0.156192
    15  C   -0.623722
    16  O   -0.552235
    17  H    0.418445
    18  H    0.224426
    19  H    0.174447
    20  H    0.165309
    21  H    0.160719
    22  H    0.164150
    23  H    0.175538
    24  H    0.231441
    25  H    0.232460
    26  H    0.236935
 Sum of Mulliken charges =   0.00000

 Dipole moment (field-independent basis, Debye):
    X=              1.5078    Y=              4.0540    Z=              6.3070  Tot=              7.6476
 Quadrupole moment (field-independent basis, Debye-Ang):
   XX=            -68.8099   YY=            -99.4379   ZZ=           -103.0315
   XY=             -0.7394   XZ=            -18.7733   YZ=             -1.0164

 Normal termination of Gaussian 09 at Thu Aug  6 22:01:33 2020.
