 Gaussian 09, Revision D.01,

 -----------------
 #p b3lyp/6-31G(d)
 -----------------

 ----------------
 SM44.n.4.pdb.xyz
 ----------------
 Symbolic Z-matrix:
 Charge =  0 Multiplicity = 1

 SCF Done:  E(RB3LYP) =  -1116.50347329     A.U. after   15 cycles
 Normal termination of Gaussian 09 at Thu Aug  6 21:59:16 2020.
 Gaussian 09:  AM64L-G09RevD.01 24-Apr-2013

 ----------------------------------------------------------------------
 #p b3lyp/6-31G(d) scrf=(iefpcm,read,solvent=Water) geom=allcheck guess
 =read
 ----------------------------------------------------------------------

 Structure from the checkpoint file:  "SM44.n.4.pdb.xyz.mst.n.w.chk"
 ----------------
 SM44.n.4.pdb.xyz
 ----------------
 Charge =  0 Multiplicity = 1

                         Standard orientation:
 ---------------------------------------------------------------------
 Center     Atomic      Atomic             Coordinates (Angstroms)
 Number     Number       Type             X           Y           Z
 ---------------------------------------------------------------------
      1          8           0        4.715930   -0.532872   -0.438228
      2         16           0        3.472326   -0.092723    0.203596
      3          7           0        2.283695   -0.246063   -0.997978
      4          6           0        0.959231    0.151333   -0.725884
      5          7           0        0.591459    1.462622   -0.737453
      6          7           0       -0.689632    1.542649   -0.496739
      7          6           0       -0.154887   -0.620631   -0.468834
      8          7           0       -1.159057    0.280439   -0.342858
      9          6           0       -2.541267    0.041928   -0.089641
     10          6           0       -3.114663   -1.168183   -0.483292
     11          6           0       -4.465026   -1.395945   -0.221573
     12          6           0       -5.234930   -0.419398    0.413147
     13          6           0       -4.648773    0.789839    0.792570
     14          6           0       -3.297343    1.026455    0.549890
     15          6           0        3.056124   -1.252267    1.509767
     16          8           0        3.367821    1.267116    0.740872
     17          1           0        2.362675   -1.154463   -1.459125
     18          1           0       -0.294931   -1.682340   -0.365506
     19          1           0       -2.519232   -1.914374   -0.994966
     20          1           0       -4.914411   -2.335115   -0.524149
     21          1           0       -6.286585   -0.599182    0.610240
     22          1           0       -5.241231    1.550857    1.288358
     23          1           0       -2.826217    1.953488    0.851062
     24          1           0        3.090803   -2.261805    1.101548
     25          1           0        2.062284   -1.014844    1.887313
     26          1           0        3.803586   -1.128924    2.294832
 ---------------------------------------------------------------------

 SCF Done:  E(RB3LYP) =  -1116.53672028     A.U. after   12 cycles

 The electronic state is 1-A.
 Alpha  occ. eigenvalues --  -89.12620 -19.15719 -19.15672 -14.44843 -14.40646
 Alpha  occ. eigenvalues --  -14.38652 -14.37296 -10.26665 -10.25241 -10.24767
 Alpha  occ. eigenvalues --  -10.22623 -10.20822 -10.20554 -10.20326 -10.20254
 Alpha  occ. eigenvalues --  -10.20028  -8.15207  -6.11707  -6.11630  -6.11478
 Alpha  occ. eigenvalues --   -1.12530  -1.11528  -1.01447  -0.95958  -0.93231
 Alpha  occ. eigenvalues --   -0.86269  -0.81441  -0.77709  -0.76507  -0.75964
 Alpha  occ. eigenvalues --   -0.66997  -0.66552  -0.63216  -0.61099  -0.58927
 Alpha  occ. eigenvalues --   -0.56644  -0.54109  -0.52723  -0.49990  -0.49933
 Alpha  occ. eigenvalues --   -0.48889  -0.48448  -0.47148  -0.45533  -0.44693
 Alpha  occ. eigenvalues --   -0.44001  -0.43530  -0.43484  -0.38986  -0.37416
 Alpha  occ. eigenvalues --   -0.36562  -0.36134  -0.35073  -0.34196  -0.33123
 Alpha  occ. eigenvalues --   -0.32177  -0.31956  -0.31523  -0.29133  -0.26900
 Alpha  occ. eigenvalues --   -0.26566  -0.24576
 Alpha virt. eigenvalues --   -0.04568  -0.01601   0.00909   0.01767   0.06700
 Alpha virt. eigenvalues --    0.07228   0.08914   0.09681   0.10094   0.10787
 Alpha virt. eigenvalues --    0.12256   0.13660   0.14910   0.15001   0.15411

 Mulliken charges:
               1
     1  O   -0.564649
     2  S    1.160017
     3  N   -0.780363
     4  C    0.376747
     5  N   -0.347412
     6  N   -0.105313
     7  C    0.049063
     8  N   -0.350361
     9  C    0.326086
    10  C   -0.169426
    11  C   -0.156247
    12  C   -0.131554
    13  C   -0.155004
    14  C   -0.154436
    15  C   -0.630829
    16  O   -0.563432
    17  H    0.425017
    18  H    0.230532
    19  H    0.175217
    20  H    0.165671
    21  H    0.161188
    22  H    0.164967
    23  H    0.175599
    24  H    0.230615
    25  H    0.227230
    26  H    0.241077
 Sum of Mulliken charges =   0.00000

 Dipole moment (field-independent basis, Debye):
    X=             -7.8598    Y=            -10.0402    Z=              2.1389  Tot=             12.9289
 Quadrupole moment (field-independent basis, Debye-Ang):
   XX=           -108.4807   YY=            -97.4533   ZZ=            -95.6226
   XY=            -11.9210   XZ=              4.4181   YZ=              3.8662

 Normal termination of Gaussian 09 at Thu Aug  6 22:01:47 2020.
