 Gaussian 09, Revision D.01,

 -----------------
 #p b3lyp/6-31G(d)
 -----------------

 ----------------
 SM44.n.3.pdb.xyz
 ----------------
 Symbolic Z-matrix:
 Charge =  0 Multiplicity = 1

 SCF Done:  E(RB3LYP) =  -1116.50489144     A.U. after   15 cycles
 Normal termination of Gaussian 09 at Thu Aug  6 22:17:19 2020.
 Gaussian 09:  AM64L-G09RevD.01 24-Apr-2013

 ----------------------------------------------------------------------
 #p b3lyp/6-31G(d) scrf=(iefpcm,read,solvent=n-Octanol) geom=allcheck g
 uess=read
 ----------------------------------------------------------------------

 Structure from the checkpoint file:  "SM44.n.3.pdb.xyz.mst.n.o.chk"
 ----------------
 SM44.n.3.pdb.xyz
 ----------------
 Charge =  0 Multiplicity = 1

                         Standard orientation:
 ---------------------------------------------------------------------
 Center     Atomic      Atomic             Coordinates (Angstroms)
 Number     Number       Type             X           Y           Z
 ---------------------------------------------------------------------
      1          8           0        4.694719   -0.595117   -0.483760
      2         16           0        3.492513   -0.099162    0.189544
      3          7           0        2.278243   -0.186338   -0.990279
      4          6           0        0.955261    0.195780   -0.704829
      5          7           0        0.580530    1.505904   -0.645371
      6          7           0       -0.696991    1.568150   -0.404619
      7          6           0       -0.157460   -0.593209   -0.492754
      8          7           0       -1.167079    0.295305   -0.322935
      9          6           0       -2.548425    0.042512   -0.087804
     10          6           0       -3.092265   -1.195096   -0.433414
     11          6           0       -4.442786   -1.437447   -0.187806
     12          6           0       -5.243677   -0.447991    0.383949
     13          6           0       -4.686519    0.787993    0.716330
     14          6           0       -3.336858    1.041145    0.488261
     15          6           0        3.031916   -1.271165    1.472930
     16          8           0        3.449440    1.239255    0.771899
     17          1           0        2.389350   -1.012272   -1.572396
     18          1           0       -0.296113   -1.659698   -0.449767
     19          1           0       -2.473652   -1.952986   -0.898090
     20          1           0       -4.868252   -2.398183   -0.455625
     21          1           0       -6.294732   -0.638437    0.569690
     22          1           0       -5.303190    1.559733    1.161682
     23          1           0       -2.886173    1.990910    0.746455
     24          1           0        3.024767   -2.276139    1.050295
     25          1           0        2.051282   -1.000642    1.864257
     26          1           0        3.785187   -1.195071    2.258934
 ---------------------------------------------------------------------

 SCF Done:  E(RB3LYP) =  -1116.53154882     A.U. after   11 cycles

 The electronic state is 1-A.
 Alpha  occ. eigenvalues --  -89.12391 -19.15271 -19.15267 -14.44880 -14.40500
 Alpha  occ. eigenvalues --  -14.38707 -14.37017 -10.26782 -10.25558 -10.25114
 Alpha  occ. eigenvalues --  -10.23062 -10.21228 -10.20759 -10.20738 -10.20573
 Alpha  occ. eigenvalues --  -10.20352  -8.14947  -6.11460  -6.11356  -6.11231
 Alpha  occ. eigenvalues --   -1.12303  -1.11489  -1.01206  -0.96007  -0.93369
 Alpha  occ. eigenvalues --   -0.86555  -0.81512  -0.77906  -0.76797  -0.76238
 Alpha  occ. eigenvalues --   -0.67216  -0.66722  -0.63464  -0.61323  -0.59231
 Alpha  occ. eigenvalues --   -0.57132  -0.54262  -0.53011  -0.50299  -0.49905
 Alpha  occ. eigenvalues --   -0.49010  -0.48676  -0.47189  -0.45910  -0.45074
 Alpha  occ. eigenvalues --   -0.44394  -0.43905  -0.43566  -0.39223  -0.37829
 Alpha  occ. eigenvalues --   -0.36648  -0.36081  -0.34666  -0.33943  -0.32744
 Alpha  occ. eigenvalues --   -0.31972  -0.31681  -0.31142  -0.28453  -0.27132
 Alpha  occ. eigenvalues --   -0.26825  -0.24576
 Alpha virt. eigenvalues --   -0.04837  -0.01906   0.01156   0.01733   0.06012
 Alpha virt. eigenvalues --    0.07277   0.08109   0.09774   0.10168   0.10239
 Alpha virt. eigenvalues --    0.11501   0.12934   0.14358   0.14787   0.14860

 Mulliken charges:
               1
     1  O   -0.545278
     2  S    1.165109
     3  N   -0.779147
     4  C    0.375569
     5  N   -0.305149
     6  N   -0.081109
     7  C    0.030163
     8  N   -0.365359
     9  C    0.330418
    10  C   -0.170212
    11  C   -0.149164
    12  C   -0.124633
    13  C   -0.147846
    14  C   -0.151241
    15  C   -0.633444
    16  O   -0.530243
    17  H    0.393619
    18  H    0.213275
    19  H    0.161888
    20  H    0.157639
    21  H    0.153849
    22  H    0.157703
    23  H    0.177517
    24  H    0.215515
    25  H    0.218049
    26  H    0.232511
 Sum of Mulliken charges =   0.00000

 Dipole moment (field-independent basis, Debye):
    X=             -7.2911    Y=             -8.3920    Z=              1.4688  Tot=             11.2135
 Quadrupole moment (field-independent basis, Debye-Ang):
   XX=           -107.3427   YY=            -97.7520   ZZ=            -95.8222
   XY=             -9.9390   XZ=              3.2720   YZ=              2.8321

 Normal termination of Gaussian 09 at Thu Aug  6 22:19:23 2020.
