 Gaussian 09, Revision D.01,

 -----------------
 #p b3lyp/6-31G(d)
 -----------------

 ----------------
 SM44.n.7.pdb.xyz
 ----------------
 Symbolic Z-matrix:
 Charge =  0 Multiplicity = 1

 SCF Done:  E(RB3LYP) =  -1116.51433148     A.U. after   15 cycles
 Normal termination of Gaussian 09 at Thu Aug  6 22:18:31 2020.
 Gaussian 09:  AM64L-G09RevD.01 24-Apr-2013

 ----------------------------------------------------------------------
 #p b3lyp/6-31G(d) scrf=(iefpcm,read,solvent=n-Octanol) geom=allcheck g
 uess=read
 ----------------------------------------------------------------------

 Structure from the checkpoint file:  "SM44.n.7.pdb.xyz.mst.n.o.chk"
 ----------------
 SM44.n.7.pdb.xyz
 ----------------
 Charge =  0 Multiplicity = 1

                         Standard orientation:
 ---------------------------------------------------------------------
 Center     Atomic      Atomic             Coordinates (Angstroms)
 Number     Number       Type             X           Y           Z
 ---------------------------------------------------------------------
      1          8           0        2.987584    0.225568    1.648474
      2         16           0        3.483456   -0.169616    0.325086
      3          7           0        2.218124   -0.789583   -0.649117
      4          6           0        0.923173   -0.270288   -0.504933
      5          7           0        0.679509    1.054675   -0.697183
      6          7           0       -0.597744    1.278737   -0.540611
      7          6           0       -0.265844   -0.904567   -0.219291
      8          7           0       -1.188641    0.094751   -0.265282
      9          6           0       -2.595397    0.009847   -0.067055
     10          6           0       -3.243095   -1.213934   -0.239122
     11          6           0       -4.618661   -1.290576   -0.031681
     12          6           0       -5.341339   -0.153288    0.332368
     13          6           0       -4.680823    1.066483    0.492535
     14          6           0       -3.304686    1.155669    0.299802
     15          6           0        3.910460    1.313798   -0.579776
     16          8           0        4.547580   -1.172099    0.211020
     17          1           0        2.282745   -1.804949   -0.675257
     18          1           0       -0.513139   -1.925501    0.015326
     19          1           0       -2.683380   -2.089205   -0.544120
     20          1           0       -5.124032   -2.240259   -0.164220
     21          1           0       -6.412499   -0.217335    0.488744
     22          1           0       -5.236363    1.952927    0.776419
     23          1           0       -2.774052    2.089969    0.429860
     24          1           0        2.996560    1.898173   -0.689076
     25          1           0        4.307592    1.024505   -1.551780
     26          1           0        4.658500    1.848848    0.005050
 ---------------------------------------------------------------------

 SCF Done:  E(RB3LYP) =  -1116.53564563     A.U. after   11 cycles

 The electronic state is 1-A.
 Alpha  occ. eigenvalues --  -89.12313 -19.15425 -19.15326 -14.44808 -14.40473
 Alpha  occ. eigenvalues --  -14.38690 -14.37033 -10.26845 -10.25447 -10.24615
 Alpha  occ. eigenvalues --  -10.22364 -10.21106 -10.20685 -10.20637 -10.20514
 Alpha  occ. eigenvalues --  -10.20278  -8.14918  -6.11445  -6.11324  -6.11172
 Alpha  occ. eigenvalues --   -1.12165  -1.11475  -1.01013  -0.96144  -0.93117
 Alpha  occ. eigenvalues --   -0.86424  -0.81468  -0.77858  -0.76796  -0.76224
 Alpha  occ. eigenvalues --   -0.67238  -0.66491  -0.63412  -0.61328  -0.58866
 Alpha  occ. eigenvalues --   -0.56897  -0.53538  -0.52778  -0.50217  -0.49505
 Alpha  occ. eigenvalues --   -0.48865  -0.48420  -0.47170  -0.45854  -0.44860
 Alpha  occ. eigenvalues --   -0.44083  -0.43794  -0.43176  -0.39348  -0.37810
 Alpha  occ. eigenvalues --   -0.36598  -0.36230  -0.35500  -0.34688  -0.32694
 Alpha  occ. eigenvalues --   -0.32273  -0.31551  -0.30697  -0.28995  -0.26823
 Alpha  occ. eigenvalues --   -0.26360  -0.23906
 Alpha virt. eigenvalues --   -0.04698  -0.01804   0.01317   0.02319   0.06070
 Alpha virt. eigenvalues --    0.07281   0.08247   0.09317   0.10481   0.10942
 Alpha virt. eigenvalues --    0.11892   0.12126   0.14463   0.14903   0.15251

 Mulliken charges:
               1
     1  O   -0.531594
     2  S    1.172140
     3  N   -0.801612
     4  C    0.430810
     5  N   -0.345539
     6  N   -0.078031
     7  C    0.016865
     8  N   -0.364463
     9  C    0.331435
    10  C   -0.169828
    11  C   -0.148984
    12  C   -0.125175
    13  C   -0.148021
    14  C   -0.151083
    15  C   -0.637345
    16  O   -0.547900
    17  H    0.392295
    18  H    0.213428
    19  H    0.162413
    20  H    0.157302
    21  H    0.153228
    22  H    0.157194
    23  H    0.175827
    24  H    0.245363
    25  H    0.219573
    26  H    0.221703
 Sum of Mulliken charges =   0.00000

 Dipole moment (field-independent basis, Debye):
    X=             -5.4326    Y=             -2.2776    Z=             -2.1555  Tot=              6.2727
 Quadrupole moment (field-independent basis, Debye-Ang):
   XX=            -91.3420   YY=            -90.1621   ZZ=           -106.1794
   XY=             11.6659   XZ=            -11.9029   YZ=              3.4413

 Normal termination of Gaussian 09 at Thu Aug  6 22:20:41 2020.
