 Gaussian 09, Revision D.01,

 -----------------
 #p b3lyp/6-31G(d)
 -----------------

 ----------------
 SM44.n.9.pdb.xyz
 ----------------
 Symbolic Z-matrix:
 Charge =  0 Multiplicity = 1

 SCF Done:  E(RB3LYP) =  -1116.50328512     A.U. after   15 cycles
 Normal termination of Gaussian 09 at Thu Aug  6 21:58:53 2020.
 Gaussian 09:  AM64L-G09RevD.01 24-Apr-2013

 ----------------------------------------------------------------------
 #p b3lyp/6-31G(d) scrf=(iefpcm,read,solvent=Water) geom=allcheck guess
 =read
 ----------------------------------------------------------------------

 Structure from the checkpoint file:  "SM44.n.9.pdb.xyz.mst.n.w.chk"
 ----------------
 SM44.n.9.pdb.xyz
 ----------------
 Charge =  0 Multiplicity = 1

                         Standard orientation:
 ---------------------------------------------------------------------
 Center     Atomic      Atomic             Coordinates (Angstroms)
 Number     Number       Type             X           Y           Z
 ---------------------------------------------------------------------
      1          8           0       -4.706456    0.284657   -0.689007
      2         16           0       -3.487154    0.143234    0.115074
      3          7           0       -2.271070   -0.238348   -1.003662
      4          6           0       -0.951442   -0.454695   -0.561146
      5          7           0       -0.580618   -1.617528    0.044122
      6          7           0        0.699441   -1.567587    0.299648
      7          6           0        0.160343    0.350437   -0.694659
      8          7           0        1.167153   -0.381794   -0.161258
      9          6           0        2.548094   -0.051124   -0.048685
     10          6           0        3.487970   -1.078834    0.055469
     11          6           0        4.838039   -0.754089    0.170234
     12          6           0        5.246812    0.581174    0.167304
     13          6           0        4.296367    1.597698    0.056971
     14          6           0        2.940232    1.288563   -0.044928
     15          6           0       -3.071513    1.737159    0.825347
     16          8           0       -3.427309   -0.865335    1.178492
     17          1           0       -2.341709    0.369520   -1.822678
     18          1           0        0.301460    1.322569   -1.136209
     19          1           0        3.157455   -2.108776    0.043296
     20          1           0        5.571457   -1.548287    0.251884
     21          1           0        6.298968    0.829312    0.250096
     22          1           0        4.604947    2.636459    0.059139
     23          1           0        2.200959    2.077620   -0.108878
     24          1           0       -3.071031    2.482302    0.031870
     25          1           0       -2.092845    1.667278    1.299600
     26          1           0       -3.838829    1.964769    1.567413
 ---------------------------------------------------------------------

 SCF Done:  E(RB3LYP) =  -1116.53635537     A.U. after   12 cycles

 The electronic state is 1-A.
 Alpha  occ. eigenvalues --  -89.12662 -19.15707 -19.15706 -14.44892 -14.40655
 Alpha  occ. eigenvalues --  -14.38705 -14.37333 -10.26719 -10.25277 -10.24785
 Alpha  occ. eigenvalues --  -10.22661 -10.20849 -10.20534 -10.20324 -10.20254
 Alpha  occ. eigenvalues --  -10.20020  -8.15246  -6.11748  -6.11669  -6.11518
 Alpha  occ. eigenvalues --   -1.12532  -1.11562  -1.01426  -0.96034  -0.93288
 Alpha  occ. eigenvalues --   -0.86279  -0.81486  -0.77781  -0.76542  -0.75964
 Alpha  occ. eigenvalues --   -0.67044  -0.66655  -0.63242  -0.61100  -0.58936
 Alpha  occ. eigenvalues --   -0.56684  -0.54080  -0.52797  -0.50087  -0.49952
 Alpha  occ. eigenvalues --   -0.48918  -0.48405  -0.47169  -0.45611  -0.44717
 Alpha  occ. eigenvalues --   -0.44000  -0.43573  -0.43464  -0.39121  -0.37434
 Alpha  occ. eigenvalues --   -0.36676  -0.35928  -0.35113  -0.34253  -0.33187
 Alpha  occ. eigenvalues --   -0.32200  -0.32182  -0.31575  -0.29045  -0.26862
 Alpha  occ. eigenvalues --   -0.26466  -0.24600
 Alpha virt. eigenvalues --   -0.04687  -0.01608   0.00880   0.01964   0.06636
 Alpha virt. eigenvalues --    0.07171   0.08817   0.09616   0.10176   0.10802
 Alpha virt. eigenvalues --    0.12254   0.13570   0.14932   0.15036   0.15368

 Mulliken charges:
               1
     1  O   -0.564657
     2  S    1.159337
     3  N   -0.779696
     4  C    0.378199
     5  N   -0.348068
     6  N   -0.104096
     7  C    0.045293
     8  N   -0.352770
     9  C    0.331123
    10  C   -0.155555
    11  C   -0.154822
    12  C   -0.131279
    13  C   -0.156478
    14  C   -0.170403
    15  C   -0.631437
    16  O   -0.563478
    17  H    0.425489
    18  H    0.231183
    19  H    0.176170
    20  H    0.165020
    21  H    0.161230
    22  H    0.165577
    23  H    0.174550
    24  H    0.230148
    25  H    0.227521
    26  H    0.241898
 Sum of Mulliken charges =   0.00000

 Dipole moment (field-independent basis, Debye):
    X=              7.9221    Y=              9.8274    Z=             -2.5485  Tot=             12.8776
 Quadrupole moment (field-independent basis, Debye-Ang):
   XX=           -108.1720   YY=            -95.1452   ZZ=            -98.5253
   XY=            -14.2255   XZ=              0.0081   YZ=              2.9403

 Normal termination of Gaussian 09 at Thu Aug  6 22:01:08 2020.
