 Gaussian 09, Revision D.01,

 -----------------
 #p b3lyp/6-31G(d)
 -----------------

 ----------------
 SM44.n.9.pdb.xyz
 ----------------
 Symbolic Z-matrix:
 Charge =  0 Multiplicity = 1

 SCF Done:  E(RB3LYP) =  -1116.50466753     A.U. after   15 cycles
 Normal termination of Gaussian 09 at Thu Aug  6 22:18:13 2020.
 Gaussian 09:  AM64L-G09RevD.01 24-Apr-2013

 ----------------------------------------------------------------------
 #p b3lyp/6-31G(d) scrf=(iefpcm,read,solvent=n-Octanol) geom=allcheck g
 uess=read
 ----------------------------------------------------------------------

 Structure from the checkpoint file:  "SM44.n.9.pdb.xyz.mst.n.o.chk"
 ----------------
 SM44.n.9.pdb.xyz
 ----------------
 Charge =  0 Multiplicity = 1

                         Standard orientation:
 ---------------------------------------------------------------------
 Center     Atomic      Atomic             Coordinates (Angstroms)
 Number     Number       Type             X           Y           Z
 ---------------------------------------------------------------------
      1          8           0       -4.708490    0.246350   -0.658754
      2         16           0       -3.481510    0.153891    0.135459
      3          7           0       -2.285232   -0.309347   -0.971535
      4          6           0       -0.956541   -0.514526   -0.559235
      5          7           0       -0.555478   -1.685688    0.013879
      6          7           0        0.719882   -1.618159    0.261117
      7          6           0        0.138291    0.317907   -0.678140
      8          7           0        1.164247   -0.407047   -0.169219
      9          6           0        2.539278   -0.053770   -0.051318
     10          6           0        3.490876   -1.065242    0.084470
     11          6           0        4.835073   -0.719099    0.201217
     12          6           0        5.226257    0.620830    0.171628
     13          6           0        4.263585    1.620039    0.032384
     14          6           0        2.914165    1.290650   -0.073543
     15          6           0       -3.038973    1.806598    0.691281
     16          8           0       -3.387798   -0.742642    1.284907
     17          1           0       -2.414035    0.148080   -1.871193
     18          1           0        0.260599    1.302764   -1.095593
     19          1           0        3.168412   -2.097823    0.097521
     20          1           0        5.578097   -1.501268    0.308387
     21          1           0        6.273775    0.884291    0.257945
     22          1           0        4.557536    2.663523    0.015308
     23          1           0        2.164201    2.068002   -0.157014
     24          1           0       -3.068195    2.486468   -0.159709
     25          1           0       -2.044571    1.775305    1.137144
     26          1           0       -3.777366    2.100092    1.438483
 ---------------------------------------------------------------------

 SCF Done:  E(RB3LYP) =  -1116.53119609     A.U. after   11 cycles

 The electronic state is 1-A.
 Alpha  occ. eigenvalues --  -89.12386 -19.15283 -19.15270 -14.44935 -14.40542
 Alpha  occ. eigenvalues --  -14.38660 -14.37066 -10.26775 -10.25599 -10.25218
 Alpha  occ. eigenvalues --  -10.23074 -10.21296 -10.20781 -10.20751 -10.20620
 Alpha  occ. eigenvalues --  -10.20379  -8.14940  -6.11452  -6.11350  -6.11225
 Alpha  occ. eigenvalues --   -1.12289  -1.11526  -1.01201  -0.95999  -0.93388
 Alpha  occ. eigenvalues --   -0.86613  -0.81545  -0.77922  -0.76821  -0.76275
 Alpha  occ. eigenvalues --   -0.67262  -0.66701  -0.63420  -0.61387  -0.59345
 Alpha  occ. eigenvalues --   -0.57188  -0.54308  -0.53043  -0.50371  -0.50011
 Alpha  occ. eigenvalues --   -0.48884  -0.48751  -0.47200  -0.45996  -0.45114
 Alpha  occ. eigenvalues --   -0.44440  -0.43929  -0.43588  -0.39274  -0.37854
 Alpha  occ. eigenvalues --   -0.36784  -0.35859  -0.34739  -0.33781  -0.32722
 Alpha  occ. eigenvalues --   -0.32021  -0.31660  -0.31189  -0.28457  -0.27242
 Alpha  occ. eigenvalues --   -0.26761  -0.24814
 Alpha virt. eigenvalues --   -0.04912  -0.01936   0.01041   0.01685   0.05992
 Alpha virt. eigenvalues --    0.07188   0.08009   0.09728   0.10088   0.10232
 Alpha virt. eigenvalues --    0.11592   0.13283   0.14330   0.14732   0.14800

 Mulliken charges:
               1
     1  O   -0.544632
     2  S    1.165006
     3  N   -0.781466
     4  C    0.375065
     5  N   -0.302379
     6  N   -0.080757
     7  C    0.030026
     8  N   -0.365271
     9  C    0.331256
    10  C   -0.151046
    11  C   -0.148047
    12  C   -0.124048
    13  C   -0.148844
    14  C   -0.168659
    15  C   -0.632687
    16  O   -0.531786
    17  H    0.393731
    18  H    0.212967
    19  H    0.177860
    20  H    0.158197
    21  H    0.154223
    22  H    0.157757
    23  H    0.159755
    24  H    0.215702
    25  H    0.215398
    26  H    0.232678
 Sum of Mulliken charges =   0.00000

 Dipole moment (field-independent basis, Debye):
    X=              7.2109    Y=              8.2480    Z=             -2.5262  Tot=             11.2431
 Quadrupole moment (field-independent basis, Debye-Ang):
   XX=           -106.2678   YY=            -95.1798   ZZ=            -98.9700
   XY=            -11.8549   XZ=              1.7393   YZ=              2.5438

 Normal termination of Gaussian 09 at Thu Aug  6 22:20:07 2020.
