 Gaussian 09, Revision D.01,

 -----------------
 #p b3lyp/6-31G(d)
 -----------------

 ----------------
 SM44.n.5.pdb.xyz
 ----------------
 Symbolic Z-matrix:
 Charge =  0 Multiplicity = 1

 SCF Done:  E(RB3LYP) =  -1116.51281034     A.U. after   15 cycles
 Normal termination of Gaussian 09 at Thu Aug  6 21:59:13 2020.
 Gaussian 09:  AM64L-G09RevD.01 24-Apr-2013

 ----------------------------------------------------------------------
 #p b3lyp/6-31G(d) scrf=(iefpcm,read,solvent=Water) geom=allcheck guess
 =read
 ----------------------------------------------------------------------

 Structure from the checkpoint file:  "SM44.n.5.pdb.xyz.mst.n.w.chk"
 ----------------
 SM44.n.5.pdb.xyz
 ----------------
 Charge =  0 Multiplicity = 1

                         Standard orientation:
 ---------------------------------------------------------------------
 Center     Atomic      Atomic             Coordinates (Angstroms)
 Number     Number       Type             X           Y           Z
 ---------------------------------------------------------------------
      1          8           0        2.471954    1.620221    0.329126
      2         16           0        3.270070    0.392252    0.210952
      3          7           0        2.326761   -0.710040   -0.697050
      4          6           0        0.962828   -0.819940   -0.366235
      5          7           0        0.439363   -1.963505    0.151005
      6          7           0       -0.852001   -1.806821    0.300670
      7          6           0       -0.050808    0.098095   -0.540953
      8          7           0       -1.159511   -0.553359   -0.103559
      9          6           0       -2.500742   -0.076440   -0.041119
     10          6           0       -2.740515    1.296985    0.042190
     11          6           0       -4.056059    1.756237    0.095197
     12          6           0       -5.119656    0.851630    0.076948
     13          6           0       -4.863775   -0.518964   -0.000236
     14          6           0       -3.555481   -0.991754   -0.066288
     15          6           0        4.633040    0.648637   -0.917732
     16          8           0        3.786420   -0.225660    1.443854
     17          1           0        2.783478   -1.625296   -0.710248
     18          1           0       -0.068132    1.100066   -0.930383
     19          1           0       -1.912116    1.994210    0.077194
     20          1           0       -4.244666    2.822001    0.159205
     21          1           0       -6.141502    1.212085    0.123394
     22          1           0       -5.685000   -1.226400   -0.018203
     23          1           0       -3.343227   -2.050866   -0.140374
     24          1           0        4.243217    1.075446   -1.840788
     25          1           0        5.126545   -0.305299   -1.100731
     26          1           0        5.318003    1.340689   -0.426240
 ---------------------------------------------------------------------

 SCF Done:  E(RB3LYP) =  -1116.53695384     A.U. after   11 cycles

 The electronic state is 1-A.
 Alpha  occ. eigenvalues --  -89.12649 -19.15864 -19.15777 -14.44697 -14.40404
 Alpha  occ. eigenvalues --  -14.38561 -14.37140 -10.26551 -10.25182 -10.24303
 Alpha  occ. eigenvalues --  -10.22698 -10.20755 -10.20472 -10.20279 -10.20193
 Alpha  occ. eigenvalues --  -10.19964  -8.15285  -6.11791  -6.11698  -6.11546
 Alpha  occ. eigenvalues --   -1.12404  -1.11337  -1.01242  -0.96036  -0.92932
 Alpha  occ. eigenvalues --   -0.86150  -0.81598  -0.77993  -0.76384  -0.75809
 Alpha  occ. eigenvalues --   -0.67127  -0.65991  -0.62572  -0.60473  -0.60186
 Alpha  occ. eigenvalues --   -0.56625  -0.53632  -0.52083  -0.49945  -0.49689
 Alpha  occ. eigenvalues --   -0.48929  -0.48021  -0.46880  -0.45546  -0.44328
 Alpha  occ. eigenvalues --   -0.43811  -0.43561  -0.43406  -0.38998  -0.37353
 Alpha  occ. eigenvalues --   -0.37294  -0.36058  -0.35666  -0.34615  -0.33197
 Alpha  occ. eigenvalues --   -0.32683  -0.31727  -0.31002  -0.29411  -0.26560
 Alpha  occ. eigenvalues --   -0.26082  -0.23999
 Alpha virt. eigenvalues --   -0.04474  -0.01539   0.01169   0.02260   0.06369
 Alpha virt. eigenvalues --    0.07412   0.08980   0.09212   0.09785   0.10786
 Alpha virt. eigenvalues --    0.11831   0.13667   0.14909   0.15129   0.15597

 Mulliken charges:
               1
     1  O   -0.570368
     2  S    1.165408
     3  N   -0.785291
     4  C    0.397239
     5  N   -0.369642
     6  N   -0.109759
     7  C    0.059349
     8  N   -0.354198
     9  C    0.329691
    10  C   -0.171109
    11  C   -0.156455
    12  C   -0.132371
    13  C   -0.155025
    14  C   -0.155763
    15  C   -0.629745
    16  O   -0.549510
    17  H    0.417660
    18  H    0.222904
    19  H    0.174209
    20  H    0.165305
    21  H    0.160642
    22  H    0.164259
    23  H    0.174881
    24  H    0.233894
    25  H    0.234591
    26  H    0.239205
 Sum of Mulliken charges =   0.00000

 Dipole moment (field-independent basis, Debye):
    X=             -0.5605    Y=              2.5575    Z=             -5.7365  Tot=              6.3057
 Quadrupole moment (field-independent basis, Debye-Ang):
   XX=            -62.6995   YY=           -101.2038   ZZ=           -104.3179
   XY=             -5.4779   XZ=            -17.1280   YZ=              1.8376

 Normal termination of Gaussian 09 at Thu Aug  6 22:01:33 2020.
