 Gaussian 09, Revision D.01,

 -----------------
 #p b3lyp/6-31G(d)
 -----------------

 ----------------
 SM44.n.2.pdb.xyz
 ----------------
 Symbolic Z-matrix:
 Charge =  0 Multiplicity = 1

 SCF Done:  E(RB3LYP) =  -1116.51401243     A.U. after   15 cycles
 Normal termination of Gaussian 09 at Thu Aug  6 21:59:00 2020.
 Gaussian 09:  AM64L-G09RevD.01 24-Apr-2013

 ----------------------------------------------------------------------
 #p b3lyp/6-31G(d) scrf=(iefpcm,read,solvent=Water) geom=allcheck guess
 =read
 ----------------------------------------------------------------------

 Structure from the checkpoint file:  "SM44.n.2.pdb.xyz.mst.n.w.chk"
 ----------------
 SM44.n.2.pdb.xyz
 ----------------
 Charge =  0 Multiplicity = 1

                         Standard orientation:
 ---------------------------------------------------------------------
 Center     Atomic      Atomic             Coordinates (Angstroms)
 Number     Number       Type             X           Y           Z
 ---------------------------------------------------------------------
      1          8           0        2.912891    0.289477    1.620547
      2         16           0        3.461186   -0.181518    0.339910
      3          7           0        2.218654   -0.748230   -0.685461
      4          6           0        0.922749   -0.224874   -0.542303
      5          7           0        0.662467    1.091752   -0.766900
      6          7           0       -0.618881    1.303690   -0.602699
      7          6           0       -0.256450   -0.865305   -0.227218
      8          7           0       -1.190534    0.119807   -0.289373
      9          6           0       -2.594433    0.019603   -0.072162
     10          6           0       -3.235261   -1.202563   -0.282342
     11          6           0       -4.607995   -1.297925   -0.058328
     12          6           0       -5.333274   -0.180240    0.358320
     13          6           0       -4.678991    1.037998    0.556988
     14          6           0       -3.305450    1.144544    0.348950
     15          6           0        4.079484    1.233950   -0.565438
     16          8           0        4.464761   -1.255298    0.338075
     17          1           0        2.256865   -1.768091   -0.716162
     18          1           0       -0.486783   -1.883097    0.031655
     19          1           0       -2.672096   -2.061799   -0.626683
     20          1           0       -5.108697   -2.246248   -0.218672
     21          1           0       -6.401194   -0.256936    0.527963
     22          1           0       -5.236298    1.908715    0.883670
     23          1           0       -2.784075    2.078369    0.512954
     24          1           0        3.252143    1.928838   -0.708347
     25          1           0        4.468554    0.887499   -1.521073
     26          1           0        4.867190    1.683337    0.039398
 ---------------------------------------------------------------------

 SCF Done:  E(RB3LYP) =  -1116.53780959     A.U. after   12 cycles

 The electronic state is 1-A.
 Alpha  occ. eigenvalues --  -89.12655 -19.15835 -19.15808 -14.44768 -14.40567
 Alpha  occ. eigenvalues --  -14.38513 -14.37227 -10.26686 -10.25191 -10.24381
 Alpha  occ. eigenvalues --  -10.22360 -10.20765 -10.20497 -10.20292 -10.20224
 Alpha  occ. eigenvalues --  -10.19980  -8.15258  -6.11775  -6.11682  -6.11503
 Alpha  occ. eigenvalues --   -1.12417  -1.11446  -1.01355  -0.95984  -0.93018
 Alpha  occ. eigenvalues --   -0.86189  -0.81389  -0.77789  -0.76540  -0.75957
 Alpha  occ. eigenvalues --   -0.66988  -0.66449  -0.63243  -0.61067  -0.58656
 Alpha  occ. eigenvalues --   -0.56543  -0.53342  -0.52712  -0.49959  -0.49537
 Alpha  occ. eigenvalues --   -0.49012  -0.48158  -0.47322  -0.45557  -0.44534
 Alpha  occ. eigenvalues --   -0.43837  -0.43440  -0.43322  -0.39081  -0.37529
 Alpha  occ. eigenvalues --   -0.36588  -0.36162  -0.35649  -0.34819  -0.32978
 Alpha  occ. eigenvalues --   -0.32624  -0.31680  -0.31190  -0.29436  -0.26594
 Alpha  occ. eigenvalues --   -0.26249  -0.24020
 Alpha virt. eigenvalues --   -0.04537  -0.01562   0.01152   0.02291   0.06325
 Alpha virt. eigenvalues --    0.07369   0.08778   0.09215   0.10454   0.11629
 Alpha virt. eigenvalues --    0.11961   0.12935   0.14943   0.15065   0.15423

 Mulliken charges:
               1
     1  O   -0.557965
     2  S    1.174732
     3  N   -0.801007
     4  C    0.416084
     5  N   -0.367431
     6  N   -0.104054
     7  C    0.037598
     8  N   -0.352137
     9  C    0.329601
    10  C   -0.171230
    11  C   -0.156278
    12  C   -0.132108
    13  C   -0.155265
    14  C   -0.155302
    15  C   -0.622947
    16  O   -0.570216
    17  H    0.422603
    18  H    0.227506
    19  H    0.174931
    20  H    0.165350
    21  H    0.160788
    22  H    0.164610
    23  H    0.175027
    24  H    0.234214
    25  H    0.229313
    26  H    0.233584
 Sum of Mulliken charges =   0.00000

 Dipole moment (field-independent basis, Debye):
    X=             -5.2543    Y=             -3.0345    Z=             -2.3944  Tot=              6.5229
 Quadrupole moment (field-independent basis, Debye-Ang):
   XX=            -87.0805   YY=            -90.9832   ZZ=           -106.4619
   XY=             12.8619   XZ=            -13.8451   YZ=              4.7431

 Normal termination of Gaussian 09 at Thu Aug  6 22:01:26 2020.
