 Gaussian 09, Revision D.01,

 -----------------
 #p b3lyp/6-31G(d)
 -----------------

 ----------------
 SM44.n.5.pdb.xyz
 ----------------
 Symbolic Z-matrix:
 Charge =  0 Multiplicity = 1

 SCF Done:  E(RB3LYP) =  -1116.51424882     A.U. after   16 cycles
 Normal termination of Gaussian 09 at Thu Aug  6 22:17:58 2020.
 Gaussian 09:  AM64L-G09RevD.01 24-Apr-2013

 ----------------------------------------------------------------------
 #p b3lyp/6-31G(d) scrf=(iefpcm,read,solvent=n-Octanol) geom=allcheck g
 uess=read
 ----------------------------------------------------------------------

 Structure from the checkpoint file:  "SM44.n.5.pdb.xyz.mst.n.o.chk"
 ----------------
 SM44.n.5.pdb.xyz
 ----------------
 Charge =  0 Multiplicity = 1

                         Standard orientation:
 ---------------------------------------------------------------------
 Center     Atomic      Atomic             Coordinates (Angstroms)
 Number     Number       Type             X           Y           Z
 ---------------------------------------------------------------------
      1          8           0       -2.415449   -1.636940    0.031883
      2         16           0       -3.254997   -0.443738    0.175824
      3          7           0       -2.350940    0.852561   -0.471135
      4          6           0       -0.965606    0.900181   -0.227788
      5          7           0       -0.383385    2.067747    0.156688
      6          7           0        0.909063    1.882491    0.249414
      7          6           0        0.006451   -0.063943   -0.378004
      8          7           0        1.157701    0.592386   -0.061388
      9          6           0        2.486571    0.080598   -0.027793
     10          6           0        2.695168   -1.296935    0.070811
     11          6           0        3.999431   -1.788212    0.092251
     12          6           0        5.083342   -0.911728    0.028811
     13          6           0        4.859652    0.462922   -0.060801
     14          6           0        3.562238    0.968512   -0.095402
     15          6           0       -4.599686   -0.504353   -1.003868
     16          8           0       -3.807515   -0.098547    1.491455
     17          1           0       -2.790735    1.749321   -0.256239
     18          1           0       -0.036521   -1.098005   -0.664148
     19          1           0        1.851670   -1.973017    0.142988
     20          1           0        4.163476   -2.856927    0.167609
     21          1           0        6.097041   -1.297191    0.049071
     22          1           0        5.697798    1.149200   -0.112670
     23          1           0        3.368840    2.030883   -0.172800
     24          1           0       -4.189656   -0.715458   -1.989117
     25          1           0       -5.125426    0.450232   -0.991532
     26          1           0       -5.265262   -1.303880   -0.677409
 ---------------------------------------------------------------------

 SCF Done:  E(RB3LYP) =  -1116.53443566     A.U. after   11 cycles

 The electronic state is 1-A.
 Alpha  occ. eigenvalues --  -89.12940 -19.15961 -19.15849 -14.44436 -14.40021
 Alpha  occ. eigenvalues --  -14.39108 -14.36674 -10.26666 -10.25262 -10.23973
 Alpha  occ. eigenvalues --  -10.23374 -10.20932 -10.20509 -10.20488 -10.20371
 Alpha  occ. eigenvalues --  -10.20118  -8.15545  -6.12066  -6.11948  -6.11811
 Alpha  occ. eigenvalues --   -1.12687  -1.11135  -1.01559  -0.96294  -0.92894
 Alpha  occ. eigenvalues --   -0.86201  -0.81625  -0.78383  -0.76499  -0.75950
 Alpha  occ. eigenvalues --   -0.67534  -0.65983  -0.62790  -0.60596  -0.60197
 Alpha  occ. eigenvalues --   -0.56790  -0.53689  -0.52381  -0.50122  -0.49950
 Alpha  occ. eigenvalues --   -0.48853  -0.48044  -0.47195  -0.45691  -0.44632
 Alpha  occ. eigenvalues --   -0.44390  -0.43975  -0.43624  -0.39415  -0.37520
 Alpha  occ. eigenvalues --   -0.37468  -0.36312  -0.35583  -0.34465  -0.33316
 Alpha  occ. eigenvalues --   -0.32685  -0.31715  -0.31070  -0.28811  -0.26663
 Alpha  occ. eigenvalues --   -0.25928  -0.23471
 Alpha virt. eigenvalues --   -0.04419  -0.01645   0.01804   0.02869   0.05810
 Alpha virt. eigenvalues --    0.06787   0.08564   0.08679   0.09503   0.09612
 Alpha virt. eigenvalues --    0.11490   0.12738   0.14587   0.14900   0.15099

 Mulliken charges:
               1
     1  O   -0.548161
     2  S    1.162770
     3  N   -0.779904
     4  C    0.403628
     5  N   -0.355765
     6  N   -0.087725
     7  C    0.047118
     8  N   -0.368681
     9  C    0.331075
    10  C   -0.169564
    11  C   -0.149462
    12  C   -0.125816
    13  C   -0.148284
    14  C   -0.152624
    15  C   -0.628446
    16  O   -0.519301
    17  H    0.388575
    18  H    0.214293
    19  H    0.162619
    20  H    0.156678
    21  H    0.151903
    22  H    0.155639
    23  H    0.174825
    24  H    0.228883
    25  H    0.223849
    26  H    0.231877
 Sum of Mulliken charges =   0.00000

 Dipole moment (field-independent basis, Debye):
    X=              0.1539    Y=             -1.8484    Z=             -4.1905  Tot=              4.5827
 Quadrupole moment (field-independent basis, Debye-Ang):
   XX=            -65.8977   YY=           -101.5160   ZZ=           -104.3281
   XY=             -7.3683   XZ=             14.0422   YZ=             -0.5995

 Normal termination of Gaussian 09 at Thu Aug  6 22:20:03 2020.
