 Gaussian 09, Revision D.01,

 -----------------
 #p b3lyp/6-31G(d)
 -----------------

 ----------------
 SM44.n.4.pdb.xyz
 ----------------
 Symbolic Z-matrix:
 Charge =  0 Multiplicity = 1

 SCF Done:  E(RB3LYP) =  -1116.50494243     A.U. after   15 cycles
 Normal termination of Gaussian 09 at Thu Aug  6 22:17:15 2020.
 Gaussian 09:  AM64L-G09RevD.01 24-Apr-2013

 ----------------------------------------------------------------------
 #p b3lyp/6-31G(d) scrf=(iefpcm,read,solvent=n-Octanol) geom=allcheck g
 uess=read
 ----------------------------------------------------------------------

 Structure from the checkpoint file:  "SM44.n.4.pdb.xyz.mst.n.o.chk"
 ----------------
 SM44.n.4.pdb.xyz
 ----------------
 Charge =  0 Multiplicity = 1

                         Standard orientation:
 ---------------------------------------------------------------------
 Center     Atomic      Atomic             Coordinates (Angstroms)
 Number     Number       Type             X           Y           Z
 ---------------------------------------------------------------------
      1          8           0        4.688566   -0.632303   -0.470013
      2         16           0        3.494268   -0.098215    0.188297
      3          7           0        2.277387   -0.205464   -0.989171
      4          6           0        0.955101    0.182389   -0.707319
      5          7           0        0.585315    1.493231   -0.656825
      6          7           0       -0.693453    1.559814   -0.416886
      7          6           0       -0.158803   -0.602660   -0.491375
      8          7           0       -1.166840    0.289422   -0.326199
      9          6           0       -2.548642    0.041881   -0.089032
     10          6           0       -3.096647   -1.196155   -0.429314
     11          6           0       -4.447667   -1.432767   -0.180924
     12          6           0       -5.244554   -0.438816    0.388238
     13          6           0       -4.683087    0.796690    0.714906
     14          6           0       -3.332907    1.044715    0.484793
     15          6           0        3.015292   -1.223321    1.508290
     16          8           0        3.470082    1.257935    0.729682
     17          1           0        2.385714   -1.045974   -1.551290
     18          1           0       -0.299898   -1.668821   -0.439902
     19          1           0       -2.481603   -1.957582   -0.891693
     20          1           0       -4.875718   -2.393343   -0.443772
     21          1           0       -6.295774   -0.625584    0.575453
     22          1           0       -5.296319    1.572160    1.159353
     23          1           0       -2.878761    1.993934    0.738093
     24          1           0        2.991140   -2.240038    1.116803
     25          1           0        2.038772   -0.924791    1.890250
     26          1           0        3.769586   -1.134329    2.290617
 ---------------------------------------------------------------------

 SCF Done:  E(RB3LYP) =  -1116.53155691     A.U. after   12 cycles

 The electronic state is 1-A.
 Alpha  occ. eigenvalues --  -89.12397 -19.15303 -19.15282 -14.44898 -14.40497
 Alpha  occ. eigenvalues --  -14.38712 -14.37016 -10.26787 -10.25566 -10.25104
 Alpha  occ. eigenvalues --  -10.23062 -10.21233 -10.20761 -10.20735 -10.20580
 Alpha  occ. eigenvalues --  -10.20354  -8.14955  -6.11468  -6.11363  -6.11238
 Alpha  occ. eigenvalues --   -1.12299  -1.11485  -1.01220  -0.96017  -0.93346
 Alpha  occ. eigenvalues --   -0.86557  -0.81512  -0.77895  -0.76803  -0.76255
 Alpha  occ. eigenvalues --   -0.67227  -0.66731  -0.63460  -0.61332  -0.59224
 Alpha  occ. eigenvalues --   -0.57120  -0.54231  -0.53013  -0.50305  -0.49911
 Alpha  occ. eigenvalues --   -0.49010  -0.48685  -0.47189  -0.45912  -0.45084
 Alpha  occ. eigenvalues --   -0.44407  -0.43913  -0.43577  -0.39234  -0.37835
 Alpha  occ. eigenvalues --   -0.36647  -0.36094  -0.34649  -0.33977  -0.32776
 Alpha  occ. eigenvalues --   -0.31971  -0.31699  -0.31151  -0.28484  -0.27112
 Alpha  occ. eigenvalues --   -0.26825  -0.24570
 Alpha virt. eigenvalues --   -0.04849  -0.01909   0.01150   0.01732   0.06006
 Alpha virt. eigenvalues --    0.07227   0.08122   0.09735   0.10161   0.10244
 Alpha virt. eigenvalues --    0.11495   0.12861   0.14352   0.14790   0.14838

 Mulliken charges:
               1
     1  O   -0.545248
     2  S    1.165642
     3  N   -0.778719
     4  C    0.375947
     5  N   -0.305950
     6  N   -0.081590
     7  C    0.028965
     8  N   -0.364718
     9  C    0.329825
    10  C   -0.169954
    11  C   -0.149052
    12  C   -0.124514
    13  C   -0.147961
    14  C   -0.151002
    15  C   -0.633687
    16  O   -0.529809
    17  H    0.393516
    18  H    0.213237
    19  H    0.162020
    20  H    0.157639
    21  H    0.153911
    22  H    0.157720
    23  H    0.177545
    24  H    0.215443
    25  H    0.218101
    26  H    0.232695
 Sum of Mulliken charges =   0.00000

 Dipole moment (field-independent basis, Debye):
    X=             -7.3423    Y=             -8.3046    Z=              1.6242  Tot=             11.2033
 Quadrupole moment (field-independent basis, Debye-Ang):
   XX=           -107.5193   YY=            -97.8717   ZZ=            -95.7157
   XY=             -9.6010   XZ=              3.5577   YZ=              2.9591

 Normal termination of Gaussian 09 at Thu Aug  6 22:19:21 2020.
