 Gaussian 09, Revision D.01,

 -----------------
 #p b3lyp/6-31G(d)
 -----------------

 ----------------
 SM44.n.8.pdb.xyz
 ----------------
 Symbolic Z-matrix:
 Charge =  0 Multiplicity = 1

 SCF Done:  E(RB3LYP) =  -1116.50346261     A.U. after   15 cycles
 Normal termination of Gaussian 09 at Thu Aug  6 21:58:53 2020.
 Gaussian 09:  AM64L-G09RevD.01 24-Apr-2013

 ----------------------------------------------------------------------
 #p b3lyp/6-31G(d) scrf=(iefpcm,read,solvent=Water) geom=allcheck guess
 =read
 ----------------------------------------------------------------------

 Structure from the checkpoint file:  "SM44.n.8.pdb.xyz.mst.n.w.chk"
 ----------------
 SM44.n.8.pdb.xyz
 ----------------
 Charge =  0 Multiplicity = 1

                         Standard orientation:
 ---------------------------------------------------------------------
 Center     Atomic      Atomic             Coordinates (Angstroms)
 Number     Number       Type             X           Y           Z
 ---------------------------------------------------------------------
      1          8           0        4.712724   -0.539318   -0.446674
      2         16           0        3.472034   -0.098603    0.201158
      3          7           0        2.285281   -0.211954   -1.006280
      4          6           0        0.960928    0.174937   -0.721395
      5          7           0        0.590636    1.485210   -0.693112
      6          7           0       -0.690421    1.554362   -0.450670
      7          6           0       -0.152070   -0.606912   -0.489729
      8          7           0       -1.158378    0.287526   -0.337147
      9          6           0       -2.539255    0.040610   -0.089603
     10          6           0       -3.308317    1.031529    0.525046
     11          6           0       -4.659657    0.789881    0.761239
     12          6           0       -5.234631   -0.430951    0.400275
     13          6           0       -4.451999   -1.412805   -0.207541
     14          6           0       -3.101271   -1.181366   -0.462928
     15          6           0        3.037695   -1.280518    1.480296
     16          8           0        3.382896    1.251090    0.766514
     17          1           0        2.363180   -1.105861   -1.495015
     18          1           0       -0.288565   -1.672128   -0.418738
     19          1           0       -2.845155    1.965986    0.812450
     20          1           0       -5.260899    1.556294    1.239190
     21          1           0       -6.286133   -0.614840    0.591492
     22          1           0       -4.891363   -2.360432   -0.496045
     23          1           0       -2.497658   -1.934620   -0.954415
     24          1           0        3.052873   -2.280247    1.047245
     25          1           0        2.049915   -1.033146    1.866272
     26          1           0        3.787925   -1.189966    2.266816
 ---------------------------------------------------------------------

 SCF Done:  E(RB3LYP) =  -1116.53659523     A.U. after   12 cycles

 The electronic state is 1-A.
 Alpha  occ. eigenvalues --  -89.12630 -19.15721 -19.15677 -14.44884 -14.40651
 Alpha  occ. eigenvalues --  -14.38667 -14.37323 -10.26679 -10.25261 -10.24789
 Alpha  occ. eigenvalues --  -10.22636 -10.20819 -10.20517 -10.20302 -10.20252
 Alpha  occ. eigenvalues --  -10.20003  -8.15217  -6.11717  -6.11641  -6.11489
 Alpha  occ. eigenvalues --   -1.12531  -1.11568  -1.01436  -0.96007  -0.93274
 Alpha  occ. eigenvalues --   -0.86275  -0.81465  -0.77746  -0.76517  -0.75962
 Alpha  occ. eigenvalues --   -0.67034  -0.66592  -0.63238  -0.61067  -0.58922
 Alpha  occ. eigenvalues --   -0.56673  -0.54115  -0.52749  -0.50005  -0.49937
 Alpha  occ. eigenvalues --   -0.48892  -0.48493  -0.47171  -0.45569  -0.44686
 Alpha  occ. eigenvalues --   -0.44013  -0.43547  -0.43482  -0.39026  -0.37424
 Alpha  occ. eigenvalues --   -0.36592  -0.36104  -0.35061  -0.34221  -0.33144
 Alpha  occ. eigenvalues --   -0.32187  -0.32017  -0.31528  -0.29125  -0.26922
 Alpha  occ. eigenvalues --   -0.26548  -0.24534
 Alpha virt. eigenvalues --   -0.04654  -0.01598   0.00963   0.01873   0.06676
 Alpha virt. eigenvalues --    0.07206   0.08880   0.09669   0.10105   0.10754
 Alpha virt. eigenvalues --    0.12215   0.13618   0.14926   0.15099   0.15398

 Mulliken charges:
               1
     1  O   -0.564993
     2  S    1.160152
     3  N   -0.779584
     4  C    0.375802
     5  N   -0.347180
     6  N   -0.104089
     7  C    0.048954
     8  N   -0.353197
     9  C    0.330015
    10  C   -0.155515
    11  C   -0.155295
    12  C   -0.131477
    13  C   -0.156318
    14  C   -0.170605
    15  C   -0.631528
    16  O   -0.563352
    17  H    0.425143
    18  H    0.230931
    19  H    0.176098
    20  H    0.164797
    21  H    0.161081
    22  H    0.165441
    23  H    0.175096
    24  H    0.230431
    25  H    0.227644
    26  H    0.241549
 Sum of Mulliken charges =   0.00000

 Dipole moment (field-independent basis, Debye):
    X=             -7.8825    Y=            -10.0403    Z=              1.8522  Tot=             12.8985
 Quadrupole moment (field-independent basis, Debye-Ang):
   XX=           -108.9172   YY=            -97.4907   ZZ=            -95.6328
   XY=            -11.9571   XZ=              4.0564   YZ=              3.5260

 Normal termination of Gaussian 09 at Thu Aug  6 22:01:05 2020.
