 Gaussian 09, Revision D.01,

 -----------------
 #p b3lyp/6-31G(d)
 -----------------

 ----------------
 SM44.n.8.pdb.xyz
 ----------------
 Symbolic Z-matrix:
 Charge =  0 Multiplicity = 1

 SCF Done:  E(RB3LYP) =  -1116.50491937     A.U. after   15 cycles
 Normal termination of Gaussian 09 at Thu Aug  6 22:18:19 2020.
 Gaussian 09:  AM64L-G09RevD.01 24-Apr-2013

 ----------------------------------------------------------------------
 #p b3lyp/6-31G(d) scrf=(iefpcm,read,solvent=n-Octanol) geom=allcheck g
 uess=read
 ----------------------------------------------------------------------

 Structure from the checkpoint file:  "SM44.n.8.pdb.xyz.mst.n.o.chk"
 ----------------
 SM44.n.8.pdb.xyz
 ----------------
 Charge =  0 Multiplicity = 1

                         Standard orientation:
 ---------------------------------------------------------------------
 Center     Atomic      Atomic             Coordinates (Angstroms)
 Number     Number       Type             X           Y           Z
 ---------------------------------------------------------------------
      1          8           0        4.695032   -0.596602   -0.478685
      2         16           0        3.491467   -0.099761    0.191687
      3          7           0        2.279767   -0.182041   -0.991728
      4          6           0        0.956334    0.198027   -0.707802
      5          7           0        0.578966    1.507198   -0.652029
      6          7           0       -0.698415    1.567305   -0.410843
      7          6           0       -0.154516   -0.592621   -0.494338
      8          7           0       -1.166787    0.293820   -0.326576
      9          6           0       -2.546654    0.040276   -0.089075
     10          6           0       -3.331266    1.038113    0.494173
     11          6           0       -4.682165    0.787890    0.723938
     12          6           0       -5.241417   -0.446009    0.387630
     13          6           0       -4.444022   -1.433875   -0.190910
     14          6           0       -3.094510   -1.194180   -0.438793
     15          6           0        3.023561   -1.273950    1.471600
     16          8           0        3.449426    1.238116    0.777270
     17          1           0        2.391978   -1.007280   -1.575342
     18          1           0       -0.291856   -1.659151   -0.449419
     19          1           0       -2.876822    1.984795    0.754595
     20          1           0       -5.295763    1.559716    1.175615
     21          1           0       -6.292453   -0.636955    0.575286
     22          1           0       -4.872062   -2.392192   -0.460999
     23          1           0       -2.480104   -1.951799   -0.910433
     24          1           0        3.016612   -2.277177    1.046238
     25          1           0        2.041561   -1.002304    1.858244
     26          1           0        3.772981   -1.199601    2.260234
 ---------------------------------------------------------------------

 SCF Done:  E(RB3LYP) =  -1116.53157604     A.U. after   11 cycles

 The electronic state is 1-A.
 Alpha  occ. eigenvalues --  -89.12392 -19.15288 -19.15267 -14.44881 -14.40500
 Alpha  occ. eigenvalues --  -14.38708 -14.37022 -10.26776 -10.25551 -10.25119
 Alpha  occ. eigenvalues --  -10.23057 -10.21224 -10.20760 -10.20716 -10.20593
 Alpha  occ. eigenvalues --  -10.20353  -8.14948  -6.11461  -6.11357  -6.11232
 Alpha  occ. eigenvalues --   -1.12283  -1.11493  -1.01191  -0.96023  -0.93380
 Alpha  occ. eigenvalues --   -0.86559  -0.81512  -0.77910  -0.76798  -0.76240
 Alpha  occ. eigenvalues --   -0.67230  -0.66726  -0.63461  -0.61331  -0.59236
 Alpha  occ. eigenvalues --   -0.57130  -0.54258  -0.53015  -0.50304  -0.49906
 Alpha  occ. eigenvalues --   -0.49019  -0.48674  -0.47193  -0.45903  -0.45083
 Alpha  occ. eigenvalues --   -0.44418  -0.43907  -0.43572  -0.39222  -0.37818
 Alpha  occ. eigenvalues --   -0.36652  -0.36080  -0.34667  -0.33928  -0.32742
 Alpha  occ. eigenvalues --   -0.31969  -0.31682  -0.31139  -0.28454  -0.27141
 Alpha  occ. eigenvalues --   -0.26831  -0.24589
 Alpha virt. eigenvalues --   -0.04838  -0.01904   0.01144   0.01711   0.06000
 Alpha virt. eigenvalues --    0.07266   0.08122   0.09749   0.10154   0.10231
 Alpha virt. eigenvalues --    0.11509   0.12931   0.14368   0.14781   0.14847

 Mulliken charges:
               1
     1  O   -0.545092
     2  S    1.165171
     3  N   -0.779195
     4  C    0.375635
     5  N   -0.305077
     6  N   -0.081172
     7  C    0.030022
     8  N   -0.364925
     9  C    0.330001
    10  C   -0.151425
    11  C   -0.147901
    12  C   -0.124769
    13  C   -0.148813
    14  C   -0.169805
    15  C   -0.633410
    16  O   -0.530784
    17  H    0.393572
    18  H    0.213065
    19  H    0.177483
    20  H    0.157849
    21  H    0.153794
    22  H    0.157568
    23  H    0.161988
    24  H    0.215566
    25  H    0.218017
    26  H    0.232637
 Sum of Mulliken charges =   0.00000

 Dipole moment (field-independent basis, Debye):
    X=             -7.2965    Y=             -8.3941    Z=              1.4583  Tot=             11.2172
 Quadrupole moment (field-independent basis, Debye-Ang):
   XX=           -107.4410   YY=            -97.7917   ZZ=            -95.7939
   XY=             -9.8993   XZ=              3.1569   YZ=              2.8812

 Normal termination of Gaussian 09 at Thu Aug  6 22:20:22 2020.
