 Gaussian 09, Revision D.01,

 -----------------
 #p b3lyp/6-31G(d)
 -----------------

 ----------------
 SM44.n.1.pdb.xyz
 ----------------
 Symbolic Z-matrix:
 Charge =  0 Multiplicity = 1

 SCF Done:  E(RB3LYP) =  -1116.51162113     A.U. after   15 cycles
 Normal termination of Gaussian 09 at Thu Aug  6 21:59:01 2020.
 Gaussian 09:  AM64L-G09RevD.01 24-Apr-2013

 ----------------------------------------------------------------------
 #p b3lyp/6-31G(d) scrf=(iefpcm,read,solvent=Water) geom=allcheck guess
 =read
 ----------------------------------------------------------------------

 Structure from the checkpoint file:  "SM44.n.1.pdb.xyz.mst.n.w.chk"
 ----------------
 SM44.n.1.pdb.xyz
 ----------------
 Charge =  0 Multiplicity = 1

                         Standard orientation:
 ---------------------------------------------------------------------
 Center     Atomic      Atomic             Coordinates (Angstroms)
 Number     Number       Type             X           Y           Z
 ---------------------------------------------------------------------
      1          8           0        2.782682    0.343354    1.549824
      2         16           0        3.374158    0.247704    0.207861
      3          7           0        2.315488   -0.572694   -0.851384
      4          6           0        0.968478   -0.732680   -0.480982
      5          7           0        0.493645   -1.875033    0.089707
      6          7           0       -0.791741   -1.747165    0.284666
      7          6           0       -0.077902    0.150226   -0.643971
      8          7           0       -1.150145   -0.512631   -0.144925
      9          6           0       -2.502159   -0.071312   -0.046692
     10          6           0       -2.777060    1.295806    0.030385
     11          6           0       -4.102986    1.718862    0.118675
     12          6           0       -5.139917    0.785294    0.143161
     13          6           0       -4.849206   -0.579115    0.072617
     14          6           0       -3.530213   -1.016278   -0.029776
     15          6           0        3.447675    1.891738   -0.496065
     16          8           0        4.678998   -0.406436    0.034717
     17          1           0        2.764786   -1.448127   -1.128903
     18          1           0       -0.138909    1.135039   -1.073139
     19          1           0       -1.968039    2.016769    0.033670
     20          1           0       -4.318966    2.779324    0.178218
     21          1           0       -6.170178    1.118143    0.216743
     22          1           0       -5.650893   -1.308542    0.086320
     23          1           0       -3.291556   -2.068930   -0.099985
     24          1           0        2.451586    2.331685   -0.469697
     25          1           0        3.815482    1.812978   -1.517772
     26          1           0        4.135724    2.470468    0.121868
 ---------------------------------------------------------------------

 SCF Done:  E(RB3LYP) =  -1116.53664729     A.U. after   12 cycles

 The electronic state is 1-A.
 Alpha  occ. eigenvalues --  -89.12593 -19.15867 -19.15805 -14.44860 -14.40669
 Alpha  occ. eigenvalues --  -14.38299 -14.37306 -10.26505 -10.25251 -10.24710
 Alpha  occ. eigenvalues --  -10.22594 -10.20829 -10.20534 -10.20316 -10.20245
 Alpha  occ. eigenvalues --  -10.20019  -8.15207  -6.11715  -6.11635  -6.11455
 Alpha  occ. eigenvalues --   -1.12435  -1.11501  -1.01415  -0.95899  -0.92989
 Alpha  occ. eigenvalues --   -0.86244  -0.81435  -0.78005  -0.76430  -0.75914
 Alpha  occ. eigenvalues --   -0.67022  -0.66266  -0.62637  -0.60642  -0.60308
 Alpha  occ. eigenvalues --   -0.56800  -0.53497  -0.52127  -0.50146  -0.49636
 Alpha  occ. eigenvalues --   -0.48996  -0.48392  -0.47130  -0.45629  -0.44452
 Alpha  occ. eigenvalues --   -0.43855  -0.43471  -0.43451  -0.38863  -0.37365
 Alpha  occ. eigenvalues --   -0.37349  -0.36108  -0.35332  -0.34113  -0.32962
 Alpha  occ. eigenvalues --   -0.32598  -0.31983  -0.31101  -0.29276  -0.26744
 Alpha  occ. eigenvalues --   -0.26540  -0.24542
 Alpha virt. eigenvalues --   -0.04610  -0.01606   0.00801   0.01905   0.06505
 Alpha virt. eigenvalues --    0.07114   0.08718   0.09316   0.10030   0.10488
 Alpha virt. eigenvalues --    0.12320   0.13654   0.14584   0.15153   0.15399

 Mulliken charges:
               1
     1  O   -0.555750
     2  S    1.165967
     3  N   -0.798017
     4  C    0.393511
     5  N   -0.356983
     6  N   -0.104429
     7  C    0.050110
     8  N   -0.352186
     9  C    0.327950
    10  C   -0.170316
    11  C   -0.155779
    12  C   -0.131765
    13  C   -0.154974
    14  C   -0.154676
    15  C   -0.614476
    16  O   -0.569823
    17  H    0.418613
    18  H    0.226871
    19  H    0.174655
    20  H    0.165736
    21  H    0.161119
    22  H    0.164851
    23  H    0.175481
    24  H    0.225582
    25  H    0.232401
    26  H    0.236327
 Sum of Mulliken charges =   0.00000

 Dipole moment (field-independent basis, Debye):
    X=             -5.0918    Y=              6.7262    Z=             -5.2148  Tot=              9.9178
 Quadrupole moment (field-independent basis, Debye-Ang):
   XX=            -94.5544   YY=            -91.4667   ZZ=           -104.2815
   XY=              7.3084   XZ=            -11.0899   YZ=              1.3278

 Normal termination of Gaussian 09 at Thu Aug  6 22:01:31 2020.
