 Gaussian 09, Revision D.01,

 -----------------
 #p b3lyp/6-31G(d)
 -----------------

 ----------------
 SM45.n.7.pdb.xyz
 ----------------
 Symbolic Z-matrix:
 Charge =  0 Multiplicity = 1

 SCF Done:  E(RB3LYP) =  -1308.24402218     A.U. after   16 cycles
 Normal termination of Gaussian 09 at Thu Aug  6 21:10:52 2020.
 Gaussian 09:  AM64L-G09RevD.01 24-Apr-2013

 ----------------------------------------------------------------------
 #p b3lyp/6-31G(d) scrf=(iefpcm,read,solvent=Water) geom=allcheck guess
 =read
 ----------------------------------------------------------------------

 Structure from the checkpoint file:  "SM45.n.7.pdb.xyz.mst.n.w.chk"
 ----------------
 SM45.n.7.pdb.xyz
 ----------------
 Charge =  0 Multiplicity = 1

                         Standard orientation:
 ---------------------------------------------------------------------
 Center     Atomic      Atomic             Coordinates (Angstroms)
 Number     Number       Type             X           Y           Z
 ---------------------------------------------------------------------
      1          8           0        1.529483   -1.269501    1.783836
      2         16           0        2.182294   -1.417801    0.473612
      3          7           0        1.034667   -1.417700   -0.790249
      4          6           0       -0.146092   -0.667925   -0.629674
      5          7           0       -0.154895    0.682963   -0.797084
      6          7           0       -1.372621    1.122451   -0.618589
      7          6           0       -1.426353   -1.088147   -0.334165
      8          7           0       -2.158710    0.052400   -0.350395
      9          6           0       -3.557752    0.213363   -0.131583
     10          6           0       -4.423887   -0.847948   -0.402284
     11          6           0       -5.789051   -0.684122   -0.173723
     12          6           0       -6.283876    0.528910    0.307104
     13          6           0       -5.406554    1.583742    0.564429
     14          6           0       -4.037917    1.431767    0.354266
     15          6           0        3.137927    0.055927    0.164542
     16          6           0        3.884594    0.147639   -1.013355
     17          6           0        4.660321    1.282721   -1.226689
     18          6           0        4.687528    2.302769   -0.270995
     19          6           0        3.940898    2.193117    0.902091
     20          6           0        3.156893    1.061723    1.129669
     21          8           0        3.005113   -2.606432    0.206145
     22          1           0        0.877533   -2.386058   -1.076530
     23          1           0       -1.841106   -2.056786   -0.118851
     24          1           0       -4.039539   -1.781251   -0.796759
     25          1           0       -6.465054   -1.506752   -0.382032
     26          1           0       -7.347390    0.652359    0.479278
     27          1           0       -5.783990    2.527632    0.942137
     28          1           0       -3.344169    2.235306    0.563859
     29          1           0        3.856780   -0.650025   -1.747415
     30          1           0        5.243121    1.371259   -2.136519
     31          1           0        5.295176    3.185330   -0.442772
     32          1           0        3.966070    2.984845    1.642050
     33          1           0        2.569924    0.954422    2.032315
 ---------------------------------------------------------------------

 SCF Done:  E(RB3LYP) =  -1308.26851232     A.U. after   11 cycles

 The electronic state is 1-A.
 Alpha  occ. eigenvalues --  -89.12758 -19.16127 -19.15955 -14.44733 -14.40495
 Alpha  occ. eigenvalues --  -14.38428 -14.37134 -10.26423 -10.25198 -10.24524
 Alpha  occ. eigenvalues --  -10.23514 -10.21572 -10.21461 -10.20802 -10.20779
 Alpha  occ. eigenvalues --  -10.20643 -10.20593 -10.20504 -10.20287 -10.20215
 Alpha  occ. eigenvalues --  -10.19977  -8.15326  -6.11828  -6.11756  -6.11596
 Alpha  occ. eigenvalues --   -1.12567  -1.11410  -1.01569  -0.95834  -0.93011
 Alpha  occ. eigenvalues --   -0.87800  -0.86214  -0.81219  -0.78234  -0.76576
 Alpha  occ. eigenvalues --   -0.76507  -0.75980  -0.69099  -0.66871  -0.64877
 Alpha  occ. eigenvalues --   -0.62519  -0.61358  -0.60774  -0.58590  -0.56741
 Alpha  occ. eigenvalues --   -0.54726  -0.53140  -0.52071  -0.49893  -0.49237
 Alpha  occ. eigenvalues --   -0.48895  -0.48307  -0.47599  -0.45865  -0.45588
 Alpha  occ. eigenvalues --   -0.45170  -0.44530  -0.44007  -0.43450  -0.39134
 Alpha  occ. eigenvalues --   -0.38853  -0.38185  -0.37478  -0.36517  -0.36320
 Alpha  occ. eigenvalues --   -0.36178  -0.35611  -0.34600  -0.33313  -0.32769
 Alpha  occ. eigenvalues --   -0.31896  -0.31162  -0.29324  -0.27323  -0.27005
 Alpha  occ. eigenvalues --   -0.26559  -0.26411  -0.24314
 Alpha virt. eigenvalues --   -0.04625  -0.04059  -0.01816  -0.01550   0.01124
 Alpha virt. eigenvalues --    0.01990   0.06126   0.08297   0.08460   0.08974
 Alpha virt. eigenvalues --    0.10006   0.11719   0.12179   0.13122   0.14250

 Mulliken charges:
               1
     1  O   -0.558780
     2  S    1.204711
     3  N   -0.806282
     4  C    0.389152
     5  N   -0.351129
     6  N   -0.107131
     7  C    0.050097
     8  N   -0.351692
     9  C    0.326458
    10  C   -0.169972
    11  C   -0.156306
    12  C   -0.131673
    13  C   -0.155158
    14  C   -0.154449
    15  C   -0.139277
    16  C   -0.136427
    17  C   -0.139316
    18  C   -0.126212
    19  C   -0.138660
    20  C   -0.140297
    21  O   -0.579176
    22  H    0.422127
    23  H    0.228245
    24  H    0.175034
    25  H    0.165269
    26  H    0.160846
    27  H    0.164547
    28  H    0.175065
    29  H    0.184449
    30  H    0.170848
    31  H    0.169489
    32  H    0.170061
    33  H    0.185540
 Sum of Mulliken charges =   0.00000

 Dipole moment (field-independent basis, Debye):
    X=             -4.6563    Y=              0.2249    Z=             -1.9716  Tot=              5.0615
 Quadrupole moment (field-independent basis, Debye-Ang):
   XX=            -90.6534   YY=           -119.6973   ZZ=           -128.6836
   XY=             23.9986   XZ=             -8.7009   YZ=             13.6519

 Normal termination of Gaussian 09 at Thu Aug  6 21:15:24 2020.
