 Gaussian 09, Revision D.01,

 -----------------
 #p b3lyp/6-31G(d)
 -----------------

 ----------------
 SM45.n.5.pdb.xyz
 ----------------
 Symbolic Z-matrix:
 Charge =  0 Multiplicity = 1

 SCF Done:  E(RB3LYP) =  -1308.23931235     A.U. after   16 cycles
 Normal termination of Gaussian 09 at Thu Aug  6 21:10:56 2020.
 Gaussian 09:  AM64L-G09RevD.01 24-Apr-2013

 ----------------------------------------------------------------------
 #p b3lyp/6-31G(d) scrf=(iefpcm,read,solvent=Water) geom=allcheck guess
 =read
 ----------------------------------------------------------------------

 Structure from the checkpoint file:  "SM45.n.5.pdb.xyz.mst.n.w.chk"
 ----------------
 SM45.n.5.pdb.xyz
 ----------------
 Charge =  0 Multiplicity = 1

                         Standard orientation:
 ---------------------------------------------------------------------
 Center     Atomic      Atomic             Coordinates (Angstroms)
 Number     Number       Type             X           Y           Z
 ---------------------------------------------------------------------
      1          8           0       -3.927916   -1.527773   -0.819717
      2         16           0       -2.758873   -1.169314   -0.007950
      3          7           0       -1.428194   -1.663495   -0.949924
      4          6           0       -0.123104   -1.446365   -0.468444
      5          7           0        0.426599   -2.243718    0.489649
      6          7           0        1.650203   -1.845067    0.716999
      7          6           0        0.810780   -0.508920   -0.856777
      8          7           0        1.901168   -0.796581   -0.106296
      9          6           0        3.174986   -0.158126   -0.105021
     10          6           0        3.624359    0.486182   -1.259045
     11          6           0        4.867679    1.115369   -1.243986
     12          6           0        5.658556    1.087746   -0.094016
     13          6           0        5.199904    0.432363    1.049226
     14          6           0        3.952344   -0.189495    1.054959
     15          6           0       -2.703151    0.606387    0.149828
     16          6           0       -3.319768    1.388298   -0.828493
     17          6           0       -3.254676    2.776576   -0.717412
     18          6           0       -2.578062    3.361928    0.355946
     19          6           0       -1.966340    2.564993    1.326829
     20          6           0       -2.024288    1.175220    1.230333
     21          8           0       -2.566048   -1.754356    1.322722
     22          1           0       -1.563759   -1.363348   -1.917344
     23          1           0        0.775231    0.300508   -1.564977
     24          1           0        3.018499    0.484363   -2.157651
     25          1           0        5.219937    1.616616   -2.138839
     26          1           0        6.628057    1.574349   -0.089642
     27          1           0        5.807558    0.410711    1.946467
     28          1           0        3.577425   -0.687856    1.939268
     29          1           0       -3.848720    0.915777   -1.646405
     30          1           0       -3.734390    3.397390   -1.465010
     31          1           0       -2.530987    4.441388    0.437827
     32          1           0       -1.449274    3.023614    2.161548
     33          1           0       -1.569640    0.541640    1.981359
 ---------------------------------------------------------------------

 SCF Done:  E(RB3LYP) =  -1308.26944836     A.U. after   12 cycles

 The electronic state is 1-A.
 Alpha  occ. eigenvalues --  -89.12773 -19.16014 -19.16013 -14.44840 -14.40640
 Alpha  occ. eigenvalues --  -14.38769 -14.37307 -10.26610 -10.25245 -10.24762
 Alpha  occ. eigenvalues --  -10.23607 -10.21662 -10.21629 -10.20907 -10.20819
 Alpha  occ. eigenvalues --  -10.20761 -10.20748 -10.20554 -10.20317 -10.20243
 Alpha  occ. eigenvalues --  -10.20013  -8.15326  -6.11812  -6.11760  -6.11613
 Alpha  occ. eigenvalues --   -1.12739  -1.11508  -1.01788  -0.95987  -0.93234
 Alpha  occ. eigenvalues --   -0.87870  -0.86273  -0.81330  -0.78265  -0.76653
 Alpha  occ. eigenvalues --   -0.76565  -0.76021  -0.68922  -0.66879  -0.64905
 Alpha  occ. eigenvalues --   -0.62611  -0.61774  -0.61064  -0.58723  -0.56820
 Alpha  occ. eigenvalues --   -0.55468  -0.53071  -0.52177  -0.49931  -0.49581
 Alpha  occ. eigenvalues --   -0.48767  -0.48452  -0.47666  -0.45887  -0.45637
 Alpha  occ. eigenvalues --   -0.45186  -0.44583  -0.44119  -0.43486  -0.39213
 Alpha  occ. eigenvalues --   -0.39032  -0.38349  -0.37404  -0.36598  -0.36437
 Alpha  occ. eigenvalues --   -0.36167  -0.35088  -0.34302  -0.33522  -0.32745
 Alpha  occ. eigenvalues --   -0.32196  -0.31814  -0.29251  -0.27585  -0.27148
 Alpha  occ. eigenvalues --   -0.26650  -0.26538  -0.24480
 Alpha virt. eigenvalues --   -0.04736  -0.04213  -0.02064  -0.01589   0.01026
 Alpha virt. eigenvalues --    0.02042   0.06184   0.08171   0.08896   0.09348
 Alpha virt. eigenvalues --    0.09801   0.11258   0.12394   0.12942   0.14296

 Mulliken charges:
               1
     1  O   -0.569513
     2  S    1.185643
     3  N   -0.769209
     4  C    0.371771
     5  N   -0.343909
     6  N   -0.106381
     7  C    0.049536
     8  N   -0.352008
     9  C    0.326013
    10  C   -0.169188
    11  C   -0.156209
    12  C   -0.131409
    13  C   -0.154817
    14  C   -0.154706
    15  C   -0.151631
    16  C   -0.142437
    17  C   -0.137361
    18  C   -0.126195
    19  C   -0.136991
    20  C   -0.144228
    21  O   -0.568131
    22  H    0.422801
    23  H    0.229523
    24  H    0.175280
    25  H    0.165599
    26  H    0.161117
    27  H    0.164899
    28  H    0.175527
    29  H    0.186612
    30  H    0.171548
    31  H    0.170539
    32  H    0.171553
    33  H    0.186362
 Sum of Mulliken charges =   0.00000

 Dipole moment (field-independent basis, Debye):
    X=              6.0112    Y=             11.2632    Z=             -5.4230  Tot=             13.8709
 Quadrupole moment (field-independent basis, Debye-Ang):
   XX=           -123.9054   YY=           -134.6911   ZZ=           -115.0057
   XY=            -12.2947   XZ=              4.1879   YZ=              5.6706

 Normal termination of Gaussian 09 at Thu Aug  6 21:15:41 2020.
