 Gaussian 09, Revision D.01,

 -----------------
 #p b3lyp/6-31G(d)
 -----------------

 ----------------
 SM45.n.6.pdb.xyz
 ----------------
 Symbolic Z-matrix:
 Charge =  0 Multiplicity = 1

 SCF Done:  E(RB3LYP) =  -1308.24044943     A.U. after   15 cycles
 Normal termination of Gaussian 09 at Thu Aug  6 21:10:00 2020.
 Gaussian 09:  AM64L-G09RevD.01 24-Apr-2013

 ----------------------------------------------------------------------
 #p b3lyp/6-31G(d) scrf=(iefpcm,read,solvent=n-Octanol) geom=allcheck g
 uess=read
 ----------------------------------------------------------------------

 Structure from the checkpoint file:  "SM45.n.6.pdb.xyz.mst.n.o.chk"
 ----------------
 SM45.n.6.pdb.xyz
 ----------------
 Charge =  0 Multiplicity = 1

                         Standard orientation:
 ---------------------------------------------------------------------
 Center     Atomic      Atomic             Coordinates (Angstroms)
 Number     Number       Type             X           Y           Z
 ---------------------------------------------------------------------
      1          8           0       -3.956067   -1.484226   -0.769519
      2         16           0       -2.768636   -1.159797    0.025443
      3          7           0       -1.466144   -1.650212   -0.957962
      4          6           0       -0.140725   -1.473457   -0.522034
      5          7           0        0.471499   -2.380002    0.294170
      6          7           0        1.692259   -1.989295    0.517842
      7          6           0        0.757631   -0.468796   -0.819267
      8          7           0        1.888899   -0.828690   -0.165672
      9          6           0        3.146120   -0.164315   -0.127112
     10          6           0        4.008539   -0.399268    0.945847
     11          6           0        5.239401    0.250875    0.979054
     12          6           0        5.600751    1.136282   -0.037990
     13          6           0        4.727554    1.363279   -1.101920
     14          6           0        3.498306    0.709191   -1.156501
     15          6           0       -2.675553    0.618436    0.182110
     16          6           0       -3.307193    1.413992   -0.774900
     17          6           0       -3.211195    2.798970   -0.667042
     18          6           0       -2.491283    3.371018    0.385477
     19          6           0       -1.869736    2.561847    1.338156
     20          6           0       -1.958565    1.173624    1.243415
     21          8           0       -2.540599   -1.738558    1.348167
     22          1           0       -1.644409   -1.411071   -1.929938
     23          1           0        0.676272    0.429335   -1.405949
     24          1           0        3.707312   -1.082245    1.728848
     25          1           0        5.913513    0.071208    1.809853
     26          1           0        6.558135    1.643660   -0.003387
     27          1           0        5.003307    2.043963   -1.899848
     28          1           0        2.829980    0.865527   -1.994862
     29          1           0       -3.875359    0.948118   -1.571448
     30          1           0       -3.703208    3.430690   -1.397771
     31          1           0       -2.420991    4.450245    0.465659
     32          1           0       -1.320974    3.010174    2.158654
     33          1           0       -1.501974    0.526742    1.981520
 ---------------------------------------------------------------------

 SCF Done:  E(RB3LYP) =  -1308.26980727     A.U. after   11 cycles

 The electronic state is 1-A.
 Alpha  occ. eigenvalues --  -89.12376 -19.15540 -19.15520 -14.44846 -14.40480
 Alpha  occ. eigenvalues --  -14.38636 -14.37016 -10.26597 -10.25545 -10.25141
 Alpha  occ. eigenvalues --  -10.23593 -10.21827 -10.21826 -10.21268 -10.21247
 Alpha  occ. eigenvalues --  -10.21125 -10.21106 -10.20773 -10.20736 -10.20603
 Alpha  occ. eigenvalues --  -10.20363  -8.14909  -6.11409  -6.11331  -6.11203
 Alpha  occ. eigenvalues --   -1.12371  -1.11435  -1.01463  -0.95907  -0.93311
 Alpha  occ. eigenvalues --   -0.88087  -0.86565  -0.81345  -0.78385  -0.76949
 Alpha  occ. eigenvalues --   -0.76827  -0.76312  -0.68848  -0.67001  -0.65126
 Alpha  occ. eigenvalues --   -0.62903  -0.61867  -0.61251  -0.59082  -0.57183
 Alpha  occ. eigenvalues --   -0.55866  -0.53305  -0.52190  -0.50279  -0.49591
 Alpha  occ. eigenvalues --   -0.48966  -0.48630  -0.47780  -0.46203  -0.45907
 Alpha  occ. eigenvalues --   -0.45017  -0.44841  -0.44453  -0.43918  -0.39400
 Alpha  occ. eigenvalues --   -0.39193  -0.38625  -0.37820  -0.36744  -0.36642
 Alpha  occ. eigenvalues --   -0.36008  -0.34712  -0.33762  -0.32988  -0.32439
 Alpha  occ. eigenvalues --   -0.31839  -0.31530  -0.28594  -0.27758  -0.27327
 Alpha  occ. eigenvalues --   -0.26903  -0.26836  -0.24652
 Alpha virt. eigenvalues --   -0.04946  -0.04264  -0.02319  -0.01908   0.01204
 Alpha virt. eigenvalues --    0.01820   0.05750   0.08069   0.08217   0.09101
 Alpha virt. eigenvalues --    0.10163   0.10477   0.12086   0.12595   0.13798

 Mulliken charges:
               1
     1  O   -0.552265
     2  S    1.193014
     3  N   -0.769288
     4  C    0.366216
     5  N   -0.302035
     6  N   -0.082326
     7  C    0.037927
     8  N   -0.364947
     9  C    0.327974
    10  C   -0.150396
    11  C   -0.147710
    12  C   -0.124628
    13  C   -0.148080
    14  C   -0.169943
    15  C   -0.153816
    16  C   -0.146771
    17  C   -0.131748
    18  C   -0.123260
    19  C   -0.132452
    20  C   -0.145096
    21  O   -0.541694
    22  H    0.389775
    23  H    0.209337
    24  H    0.176855
    25  H    0.157946
    26  H    0.153900
    27  H    0.157638
    28  H    0.161293
    29  H    0.181997
    30  H    0.162938
    31  H    0.162155
    32  H    0.163280
    33  H    0.184211
 Sum of Mulliken charges =   0.00000

 Dipole moment (field-independent basis, Debye):
    X=              5.4182    Y=             10.1264    Z=             -4.0605  Tot=             12.1815
 Quadrupole moment (field-independent basis, Debye-Ang):
   XX=           -123.7542   YY=           -133.0017   ZZ=           -117.0679
   XY=            -10.1669   XZ=              5.6367   YZ=              3.1820

 Normal termination of Gaussian 09 at Thu Aug  6 21:13:37 2020.
