 Gaussian 09, Revision D.01,

 -----------------
 #p b3lyp/6-31G(d)
 -----------------

 ----------------
 SM45.n.8.pdb.xyz
 ----------------
 Symbolic Z-matrix:
 Charge =  0 Multiplicity = 1

 SCF Done:  E(RB3LYP) =  -1308.24492622     A.U. after   16 cycles
 Normal termination of Gaussian 09 at Thu Aug  6 21:10:31 2020.
 Gaussian 09:  AM64L-G09RevD.01 24-Apr-2013

 ----------------------------------------------------------------------
 #p b3lyp/6-31G(d) scrf=(iefpcm,read,solvent=Water) geom=allcheck guess
 =read
 ----------------------------------------------------------------------

 Structure from the checkpoint file:  "SM45.n.8.pdb.xyz.mst.n.w.chk"
 ----------------
 SM45.n.8.pdb.xyz
 ----------------
 Charge =  0 Multiplicity = 1

                         Standard orientation:
 ---------------------------------------------------------------------
 Center     Atomic      Atomic             Coordinates (Angstroms)
 Number     Number       Type             X           Y           Z
 ---------------------------------------------------------------------
      1          8           0        1.536203   -0.853197    1.760213
      2         16           0        2.130638   -1.210582    0.464767
      3          7           0        0.951542   -1.013959   -0.745671
      4          6           0       -0.271612   -0.392786   -0.453475
      5          7           0       -0.346617    0.926820   -0.128841
      6          7           0       -1.602264    1.249198    0.047558
      7          6           0       -1.547755   -0.914263   -0.487943
      8          7           0       -2.343843    0.143327   -0.184521
      9          6           0       -3.764804    0.187245   -0.096845
     10          6           0       -4.528564   -0.731863   -0.819117
     11          6           0       -5.917832   -0.685864   -0.718624
     12          6           0       -6.537594    0.275604    0.080694
     13          6           0       -5.760590    1.193875    0.790561
     14          6           0       -4.369249    1.151959    0.711352
     15          6           0        3.382392   -0.001880    0.059607
     16          6           0        3.041861    1.351446    0.004893
     17          6           0        4.044989    2.279501   -0.262035
     18          6           0        5.362217    1.854749   -0.461956
     19          6           0        5.682759    0.498249   -0.402009
     20          6           0        4.688520   -0.445246   -0.138011
     21          8           0        2.703359   -2.548443    0.261950
     22          1           0        0.879696   -1.864819   -1.303265
     23          1           0       -1.924132   -1.902917   -0.683356
     24          1           0       -4.046357   -1.463032   -1.457245
     25          1           0       -6.514876   -1.398821   -1.276798
     26          1           0       -7.619282    0.310088    0.151468
     27          1           0       -6.233700    1.941967    1.416946
     28          1           0       -3.754472    1.847926    1.265421
     29          1           0        2.012133    1.664393    0.144373
     30          1           0        3.799365    3.333842   -0.315058
     31          1           0        6.137325    2.584282   -0.669067
     32          1           0        6.704287    0.170237   -0.560352
     33          1           0        4.913171   -1.502765   -0.088867
 ---------------------------------------------------------------------

 SCF Done:  E(RB3LYP) =  -1308.26816382     A.U. after   11 cycles

 The electronic state is 1-A.
 Alpha  occ. eigenvalues --  -89.12935 -19.16192 -19.16034 -14.44744 -14.40520
 Alpha  occ. eigenvalues --  -14.38489 -14.37215 -10.26684 -10.25189 -10.24386
 Alpha  occ. eigenvalues --  -10.23374 -10.21305 -10.21116 -10.20765 -10.20623
 Alpha  occ. eigenvalues --  -10.20499 -10.20484 -10.20477 -10.20275 -10.20222
 Alpha  occ. eigenvalues --  -10.19970  -8.15461  -6.11982  -6.11900  -6.11713
 Alpha  occ. eigenvalues --   -1.12707  -1.11462  -1.01737  -0.95904  -0.93033
 Alpha  occ. eigenvalues --   -0.87636  -0.86182  -0.81337  -0.78084  -0.76534
 Alpha  occ. eigenvalues --   -0.76362  -0.75977  -0.69226  -0.66922  -0.64743
 Alpha  occ. eigenvalues --   -0.62461  -0.61351  -0.60915  -0.58451  -0.56725
 Alpha  occ. eigenvalues --   -0.54891  -0.53262  -0.51976  -0.49853  -0.49351
 Alpha  occ. eigenvalues --   -0.49046  -0.48248  -0.47313  -0.45709  -0.45467
 Alpha  occ. eigenvalues --   -0.45384  -0.44507  -0.43831  -0.43426  -0.39320
 Alpha  occ. eigenvalues --   -0.38788  -0.38221  -0.37508  -0.36792  -0.36223
 Alpha  occ. eigenvalues --   -0.36131  -0.35429  -0.34397  -0.33583  -0.32384
 Alpha  occ. eigenvalues --   -0.31979  -0.31782  -0.29393  -0.27261  -0.26826
 Alpha  occ. eigenvalues --   -0.26541  -0.26114  -0.23996
 Alpha virt. eigenvalues --   -0.04509  -0.03757  -0.01717  -0.01548   0.01211
 Alpha virt. eigenvalues --    0.02262   0.06048   0.07099   0.08813   0.09097
 Alpha virt. eigenvalues --    0.10214   0.11697   0.12261   0.13118   0.14706

 Mulliken charges:
               1
     1  O   -0.560354
     2  S    1.198699
     3  N   -0.811719
     4  C    0.433202
     5  N   -0.359407
     6  N   -0.100200
     7  C    0.034216
     8  N   -0.353575
     9  C    0.329665
    10  C   -0.170575
    11  C   -0.156456
    12  C   -0.131905
    13  C   -0.155361
    14  C   -0.155785
    15  C   -0.145614
    16  C   -0.146851
    17  C   -0.141884
    18  C   -0.128436
    19  C   -0.138919
    20  C   -0.148488
    21  O   -0.565322
    22  H    0.424879
    23  H    0.227641
    24  H    0.174857
    25  H    0.165044
    26  H    0.160724
    27  H    0.164517
    28  H    0.175176
    29  H    0.193367
    30  H    0.168593
    31  H    0.167468
    32  H    0.168396
    33  H    0.184407
 Sum of Mulliken charges =   0.00000

 Dipole moment (field-independent basis, Debye):
    X=             -3.6166    Y=             -0.8633    Z=             -4.7362  Tot=              6.0214
 Quadrupole moment (field-independent basis, Debye-Ang):
   XX=            -77.6225   YY=           -123.6436   ZZ=           -130.8589
   XY=             17.3550   XZ=             -5.8366   YZ=             10.3963

 Normal termination of Gaussian 09 at Thu Aug  6 21:14:41 2020.
