 Gaussian 09, Revision D.01,

 -----------------
 #p b3lyp/6-31G(d)
 -----------------

 ----------------
 SM45.n.1.pdb.xyz
 ----------------
 Symbolic Z-matrix:
 Charge =  0 Multiplicity = 1

 SCF Done:  E(RB3LYP) =  -1308.24519963     A.U. after   15 cycles
 Normal termination of Gaussian 09 at Thu Aug  6 21:09:20 2020.
 Gaussian 09:  AM64L-G09RevD.01 24-Apr-2013

 ----------------------------------------------------------------------
 #p b3lyp/6-31G(d) scrf=(iefpcm,read,solvent=Water) geom=allcheck guess
 =read
 ----------------------------------------------------------------------

 Structure from the checkpoint file:  "SM45.n.1.pdb.xyz.mst.n.w.chk"
 ----------------
 SM45.n.1.pdb.xyz
 ----------------
 Charge =  0 Multiplicity = 1

                         Standard orientation:
 ---------------------------------------------------------------------
 Center     Atomic      Atomic             Coordinates (Angstroms)
 Number     Number       Type             X           Y           Z
 ---------------------------------------------------------------------
      1          8           0        2.125956   -1.488626    1.669579
      2         16           0        2.584208   -1.230790    0.295859
      3          7           0        1.405726   -1.678204   -0.856216
      4          6           0        0.049021   -1.526257   -0.512703
      5          7           0       -0.712709   -2.546357   -0.029533
      6          7           0       -1.929033   -2.110410    0.160089
      7          6           0       -0.734121   -0.397352   -0.621484
      8          7           0       -1.953194   -0.799566   -0.185201
      9          6           0       -3.154370   -0.039497   -0.075278
     10          6           0       -3.080879    1.338957    0.132895
     11          6           0       -4.261355    2.074259    0.228815
     12          6           0       -5.499418    1.437674    0.132242
     13          6           0       -5.556353    0.056103   -0.066866
     14          6           0       -4.385975   -0.690847   -0.179679
     15          6           0        2.695822    0.536092    0.082463
     16          6           0        2.397115    1.356516    1.168973
     17          6           0        2.520740    2.737975    1.020525
     18          6           0        2.938179    3.274944   -0.198881
     19          6           0        3.236514    2.437209   -1.277317
     20          6           0        3.119786    1.055506   -1.144308
     21          8           0        3.815221   -1.879386   -0.183796
     22          1           0        1.634218   -2.617687   -1.189209
     23          1           0       -0.531656    0.595995   -0.981643
     24          1           0       -2.118162    1.826597    0.231616
     25          1           0       -4.208634    3.146129    0.389799
     26          1           0       -6.414883    2.013142    0.211631
     27          1           0       -6.515988   -0.443371   -0.146602
     28          1           0       -4.415409   -1.759104   -0.348194
     29          1           0        2.076627    0.912883    2.102739
     30          1           0        2.291568    3.390683    1.855174
     31          1           0        3.032388    4.349296   -0.309960
     32          1           0        3.561417    2.859023   -2.222238
     33          1           0        3.347988    0.397232   -1.973473
 ---------------------------------------------------------------------

 SCF Done:  E(RB3LYP) =  -1308.26911092     A.U. after   11 cycles

 The electronic state is 1-A.
 Alpha  occ. eigenvalues --  -89.12772 -19.16129 -19.15964 -14.44882 -14.40713
 Alpha  occ. eigenvalues --  -14.38423 -14.37368 -10.26487 -10.25270 -10.24773
 Alpha  occ. eigenvalues --  -10.23672 -10.21778 -10.21620 -10.20964 -10.20871
 Alpha  occ. eigenvalues --  -10.20814 -10.20756 -10.20573 -10.20344 -10.20271
 Alpha  occ. eigenvalues --  -10.20040  -8.15347  -6.11844  -6.11774  -6.11622
 Alpha  occ. eigenvalues --   -1.12563  -1.11557  -1.01529  -0.95991  -0.93098
 Alpha  occ. eigenvalues --   -0.87955  -0.86279  -0.81352  -0.78451  -0.76714
 Alpha  occ. eigenvalues --   -0.76525  -0.76023  -0.69243  -0.66635  -0.64943
 Alpha  occ. eigenvalues --   -0.62670  -0.61430  -0.60676  -0.59702  -0.56928
 Alpha  occ. eigenvalues --   -0.55042  -0.52564  -0.52040  -0.50122  -0.49327
 Alpha  occ. eigenvalues --   -0.48869  -0.48486  -0.47582  -0.45991  -0.45576
 Alpha  occ. eigenvalues --   -0.45338  -0.44405  -0.44147  -0.43515  -0.39267
 Alpha  occ. eigenvalues --   -0.38849  -0.38343  -0.37405  -0.37320  -0.36464
 Alpha  occ. eigenvalues --   -0.36133  -0.35360  -0.34688  -0.33234  -0.32797
 Alpha  occ. eigenvalues --   -0.32143  -0.31146  -0.29312  -0.27875  -0.27109
 Alpha  occ. eigenvalues --   -0.26610  -0.26454  -0.24615
 Alpha virt. eigenvalues --   -0.04830  -0.04142  -0.01995  -0.01612   0.00716
 Alpha virt. eigenvalues --    0.01905   0.06125   0.08222   0.08709   0.08974
 Alpha virt. eigenvalues --    0.09801   0.11600   0.12071   0.13431   0.14222

 Mulliken charges:
               1
     1  O   -0.554824
     2  S    1.198539
     3  N   -0.800371
     4  C    0.386527
     5  N   -0.354960
     6  N   -0.103935
     7  C    0.050644
     8  N   -0.349562
     9  C    0.325134
    10  C   -0.167030
    11  C   -0.156047
    12  C   -0.131126
    13  C   -0.155230
    14  C   -0.153253
    15  C   -0.157226
    16  C   -0.140454
    17  C   -0.136405
    18  C   -0.124679
    19  C   -0.138668
    20  C   -0.133656
    21  O   -0.577675
    22  H    0.418807
    23  H    0.225068
    24  H    0.171541
    25  H    0.165820
    26  H    0.161533
    27  H    0.165053
    28  H    0.175557
    29  H    0.189051
    30  H    0.171608
    31  H    0.171058
    32  H    0.172263
    33  H    0.186896
 Sum of Mulliken charges =   0.00000

 Dipole moment (field-independent basis, Debye):
    X=             -4.0992    Y=              9.9236    Z=             -3.9134  Tot=             11.4279
 Quadrupole moment (field-independent basis, Debye-Ang):
   XX=           -120.7178   YY=           -121.8143   ZZ=           -126.0035
   XY=              8.7291   XZ=             -6.0336   YZ=              8.7238

 Normal termination of Gaussian 09 at Thu Aug  6 21:12:56 2020.
