 Gaussian 09, Revision D.01,

 -----------------
 #p b3lyp/6-31G(d)
 -----------------

 ----------------
 SM45.n.9.pdb.xyz
 ----------------
 Symbolic Z-matrix:
 Charge =  0 Multiplicity = 1

 SCF Done:  E(RB3LYP) =  -1308.24532673     A.U. after   16 cycles
 Normal termination of Gaussian 09 at Thu Aug  6 21:10:29 2020.
 Gaussian 09:  AM64L-G09RevD.01 24-Apr-2013

 ----------------------------------------------------------------------
 #p b3lyp/6-31G(d) scrf=(iefpcm,read,solvent=Water) geom=allcheck guess
 =read
 ----------------------------------------------------------------------

 Structure from the checkpoint file:  "SM45.n.9.pdb.xyz.mst.n.w.chk"
 ----------------
 SM45.n.9.pdb.xyz
 ----------------
 Charge =  0 Multiplicity = 1

                         Standard orientation:
 ---------------------------------------------------------------------
 Center     Atomic      Atomic             Coordinates (Angstroms)
 Number     Number       Type             X           Y           Z
 ---------------------------------------------------------------------
      1          8           0        2.007930   -1.580841    1.585576
      2         16           0        2.542916   -1.251211    0.255631
      3          7           0        1.395600   -1.562657   -0.968651
      4          6           0        0.029019   -1.447098   -0.650617
      5          7           0       -0.741657   -2.517283   -0.308849
      6          7           0       -1.965448   -2.107971   -0.106515
      7          6           0       -0.756378   -0.314227   -0.646681
      8          7           0       -1.984265   -0.765520   -0.291472
      9          6           0       -3.193815   -0.026006   -0.129950
     10          6           0       -4.181929   -0.514920    0.726792
     11          6           0       -5.365089    0.206357    0.877778
     12          6           0       -5.552546    1.407742    0.191846
     13          6           0       -4.553312    1.886891   -0.657346
     14          6           0       -3.370438    1.169680   -0.828616
     15          6           0        2.751736    0.517479    0.175669
     16          6           0        3.353830    1.082214   -0.950629
     17          6           0        3.534612    2.462405   -0.990817
     18          6           0        3.118132    3.254757    0.083988
     19          6           0        2.522494    2.674095    1.202960
     20          6           0        2.334765    1.292708    1.258191
     21          8           0        3.763269   -1.918185   -0.220058
     22          1           0        1.632216   -2.459407   -1.398819
     23          1           0       -0.538670    0.721064   -0.842696
     24          1           0       -4.017617   -1.441052    1.262131
     25          1           0       -6.135766   -0.169658    1.541191
     26          1           0       -6.472751    1.968297    0.316675
     27          1           0       -4.694785    2.815335   -1.197376
     28          1           0       -2.604623    1.527765   -1.506203
     29          1           0        3.674469    0.457137   -1.775203
     30          1           0        4.000284    2.917424   -1.857535
     31          1           0        3.261694    4.329248    0.045770
     32          1           0        2.203988    3.292445    2.035030
     33          1           0        1.879238    0.814540    2.115788
 ---------------------------------------------------------------------

 SCF Done:  E(RB3LYP) =  -1308.26907736     A.U. after   11 cycles

 The electronic state is 1-A.
 Alpha  occ. eigenvalues --  -89.12759 -19.16123 -19.15989 -14.44838 -14.40652
 Alpha  occ. eigenvalues --  -14.38357 -14.37313 -10.26444 -10.25253 -10.24702
 Alpha  occ. eigenvalues --  -10.23616 -10.21697 -10.21618 -10.20924 -10.20827
 Alpha  occ. eigenvalues --  -10.20776 -10.20722 -10.20556 -10.20308 -10.20254
 Alpha  occ. eigenvalues --  -10.20025  -8.15334  -6.11831  -6.11764  -6.11606
 Alpha  occ. eigenvalues --   -1.12612  -1.11511  -1.01610  -0.95932  -0.93023
 Alpha  occ. eigenvalues --   -0.87927  -0.86260  -0.81315  -0.78417  -0.76679
 Alpha  occ. eigenvalues --   -0.76502  -0.75999  -0.69221  -0.66578  -0.64886
 Alpha  occ. eigenvalues --   -0.62632  -0.61432  -0.60603  -0.59644  -0.56908
 Alpha  occ. eigenvalues --   -0.55058  -0.52546  -0.52028  -0.50063  -0.49340
 Alpha  occ. eigenvalues --   -0.48968  -0.48310  -0.47595  -0.45942  -0.45633
 Alpha  occ. eigenvalues --   -0.45247  -0.44361  -0.44123  -0.43462  -0.39324
 Alpha  occ. eigenvalues --   -0.38817  -0.38319  -0.37359  -0.37272  -0.36444
 Alpha  occ. eigenvalues --   -0.36138  -0.35244  -0.34661  -0.33170  -0.32814
 Alpha  occ. eigenvalues --   -0.32166  -0.31299  -0.29225  -0.27805  -0.27076
 Alpha  occ. eigenvalues --   -0.26665  -0.26226  -0.24667
 Alpha virt. eigenvalues --   -0.04729  -0.04152  -0.01963  -0.01590   0.00766
 Alpha virt. eigenvalues --    0.01958   0.06179   0.08215   0.08862   0.08913
 Alpha virt. eigenvalues --    0.09846   0.11654   0.12107   0.13579   0.14250

 Mulliken charges:
               1
     1  O   -0.556061
     2  S    1.200958
     3  N   -0.799029
     4  C    0.383884
     5  N   -0.354858
     6  N   -0.105486
     7  C    0.054573
     8  N   -0.351549
     9  C    0.326513
    10  C   -0.154603
    11  C   -0.154817
    12  C   -0.131461
    13  C   -0.156047
    14  C   -0.169378
    15  C   -0.151774
    16  C   -0.134968
    17  C   -0.138669
    18  C   -0.125336
    19  C   -0.136836
    20  C   -0.141616
    21  O   -0.579529
    22  H    0.418323
    23  H    0.226280
    24  H    0.175605
    25  H    0.165066
    26  H    0.161197
    27  H    0.165653
    28  H    0.175599
    29  H    0.185998
    30  H    0.172017
    31  H    0.170583
    32  H    0.171286
    33  H    0.188484
 Sum of Mulliken charges =   0.00000

 Dipole moment (field-independent basis, Debye):
    X=             -3.6713    Y=             10.2829    Z=             -3.0388  Tot=             11.3336
 Quadrupole moment (field-independent basis, Debye-Ang):
   XX=           -119.1897   YY=           -125.8588   ZZ=           -122.0823
   XY=              7.1383   XZ=             -9.7803   YZ=              3.1489

 Normal termination of Gaussian 09 at Thu Aug  6 21:14:14 2020.
