 Gaussian 09, Revision D.01,

 -----------------
 #p b3lyp/6-31G(d)
 -----------------

 ----------------
 SM45.n.4.pdb.xyz
 ----------------
 Symbolic Z-matrix:
 Charge =  0 Multiplicity = 1

 SCF Done:  E(RB3LYP) =  -1308.24536827     A.U. after   16 cycles
 Normal termination of Gaussian 09 at Thu Aug  6 21:10:03 2020.
 Gaussian 09:  AM64L-G09RevD.01 24-Apr-2013

 ----------------------------------------------------------------------
 #p b3lyp/6-31G(d) scrf=(iefpcm,read,solvent=n-Octanol) geom=allcheck g
 uess=read
 ----------------------------------------------------------------------

 Structure from the checkpoint file:  "SM45.n.4.pdb.xyz.mst.n.o.chk"
 ----------------
 SM45.n.4.pdb.xyz
 ----------------
 Charge =  0 Multiplicity = 1

                         Standard orientation:
 ---------------------------------------------------------------------
 Center     Atomic      Atomic             Coordinates (Angstroms)
 Number     Number       Type             X           Y           Z
 ---------------------------------------------------------------------
      1          8           0        1.552895   -0.946175    1.755159
      2         16           0        2.151748   -1.250272    0.453236
      3          7           0        0.956494   -1.075170   -0.753892
      4          6           0       -0.262284   -0.440965   -0.472862
      5          7           0       -0.320318    0.885219   -0.169966
      6          7           0       -1.567327    1.225235    0.010199
      7          6           0       -1.543658   -0.949169   -0.488672
      8          7           0       -2.326074    0.123985   -0.198068
      9          6           0       -3.744362    0.188544   -0.097121
     10          6           0       -4.527104   -0.771699   -0.740399
     11          6           0       -5.914638   -0.706559   -0.624931
     12          6           0       -6.512731    0.313615    0.114398
     13          6           0       -5.716991    1.271912    0.745377
     14          6           0       -4.329497    1.212795    0.649241
     15          6           0        3.353128    0.014582    0.064140
     16          6           0        2.963688    1.354469    0.021135
     17          6           0        3.936332    2.319422   -0.228730
     18          6           0        5.268861    1.945501   -0.423241
     19          6           0        5.638032    0.601146   -0.375419
     20          6           0        4.675896   -0.379088   -0.131220
     21          8           0        2.766754   -2.557776    0.192226
     22          1           0        0.894565   -1.930899   -1.299134
     23          1           0       -1.934160   -1.936927   -0.658918
     24          1           0       -4.060550   -1.548557   -1.333959
     25          1           0       -6.525011   -1.451082   -1.122937
     26          1           0       -7.592540    0.362153    0.198327
     27          1           0       -6.176728    2.066288    1.323042
     28          1           0       -3.695555    1.940568    1.138703
     29          1           0        1.920474    1.623002    0.150077
     30          1           0        3.652881    3.364743   -0.274436
     31          1           0        6.019811    2.704141   -0.615064
     32          1           0        6.671379    0.312331   -0.530443
     33          1           0        4.932796   -1.431723   -0.094204
 ---------------------------------------------------------------------

 SCF Done:  E(RB3LYP) =  -1308.27096015     A.U. after   11 cycles

 The electronic state is 1-A.
 Alpha  occ. eigenvalues --  -89.12476 -19.15683 -19.15548 -14.44769 -14.40415
 Alpha  occ. eigenvalues --  -14.38594 -14.37029 -10.26769 -10.25422 -10.24639
 Alpha  occ. eigenvalues --  -10.23186 -10.21274 -10.21105 -10.20880 -10.20706
 Alpha  occ. eigenvalues --  -10.20651 -10.20617 -10.20572 -10.20508 -10.20495
 Alpha  occ. eigenvalues --  -10.20249  -8.15010  -6.11541  -6.11435  -6.11267
 Alpha  occ. eigenvalues --   -1.12346  -1.11447  -1.01353  -0.95942  -0.93097
 Alpha  occ. eigenvalues --   -0.87555  -0.86422  -0.81365  -0.78030  -0.76759
 Alpha  occ. eigenvalues --   -0.76326  -0.76235  -0.69030  -0.67139  -0.64938
 Alpha  occ. eigenvalues --   -0.62475  -0.61474  -0.61053  -0.58595  -0.57000
 Alpha  occ. eigenvalues --   -0.54921  -0.53431  -0.51824  -0.50141  -0.49323
 Alpha  occ. eigenvalues --   -0.49014  -0.48483  -0.47132  -0.45846  -0.45563
 Alpha  occ. eigenvalues --   -0.45095  -0.44831  -0.43880  -0.43747  -0.39421
 Alpha  occ. eigenvalues --   -0.38772  -0.38281  -0.37743  -0.36685  -0.36352
 Alpha  occ. eigenvalues --   -0.35993  -0.35269  -0.34273  -0.33086  -0.32082
 Alpha  occ. eigenvalues --   -0.31746  -0.31410  -0.28947  -0.27219  -0.26796
 Alpha  occ. eigenvalues --   -0.26714  -0.26202  -0.23961
 Alpha virt. eigenvalues --   -0.04659  -0.03621  -0.01801  -0.01648   0.01334
 Alpha virt. eigenvalues --    0.02182   0.05789   0.07253   0.08268   0.09185
 Alpha virt. eigenvalues --    0.10117   0.11037   0.12231   0.12604   0.14494

 Mulliken charges:
               1
     1  O   -0.531036
     2  S    1.190709
     3  N   -0.810425
     4  C    0.440871
     5  N   -0.335340
     6  N   -0.075186
     7  C    0.015652
     8  N   -0.365909
     9  C    0.331242
    10  C   -0.169872
    11  C   -0.148701
    12  C   -0.125071
    13  C   -0.148182
    14  C   -0.150921
    15  C   -0.148191
    16  C   -0.143715
    17  C   -0.139649
    18  C   -0.124328
    19  C   -0.133458
    20  C   -0.150082
    21  O   -0.552582
    22  H    0.394203
    23  H    0.214049
    24  H    0.162262
    25  H    0.157233
    26  H    0.153109
    27  H    0.157112
    28  H    0.176090
    29  H    0.203720
    30  H    0.158872
    31  H    0.157556
    32  H    0.158552
    33  H    0.181418
 Sum of Mulliken charges =   0.00000

 Dipole moment (field-independent basis, Debye):
    X=             -3.6928    Y=             -0.2061    Z=             -3.8513  Tot=              5.3396
 Quadrupole moment (field-independent basis, Debye-Ang):
   XX=            -82.8647   YY=           -123.0703   ZZ=           -131.4716
   XY=             15.8605   XZ=             -5.0999   YZ=              9.5528

 Normal termination of Gaussian 09 at Thu Aug  6 21:13:22 2020.
