 Gaussian 09, Revision D.01,

 -----------------
 #p b3lyp/6-31G(d)
 -----------------

 ----------------
 SM45.n.2.pdb.xyz
 ----------------
 Symbolic Z-matrix:
 Charge =  0 Multiplicity = 1

 SCF Done:  E(RB3LYP) =  -1308.24619888     A.U. after   15 cycles
 Normal termination of Gaussian 09 at Thu Aug  6 21:09:54 2020.
 Gaussian 09:  AM64L-G09RevD.01 24-Apr-2013

 ----------------------------------------------------------------------
 #p b3lyp/6-31G(d) scrf=(iefpcm,read,solvent=n-Octanol) geom=allcheck g
 uess=read
 ----------------------------------------------------------------------

 Structure from the checkpoint file:  "SM45.n.2.pdb.xyz.mst.n.o.chk"
 ----------------
 SM45.n.2.pdb.xyz
 ----------------
 Charge =  0 Multiplicity = 1

                         Standard orientation:
 ---------------------------------------------------------------------
 Center     Atomic      Atomic             Coordinates (Angstroms)
 Number     Number       Type             X           Y           Z
 ---------------------------------------------------------------------
      1          8           0        1.930687   -1.350823    1.770703
      2         16           0        2.501584   -1.245980    0.424007
      3          7           0        1.362748   -1.693563   -0.771343
      4          6           0       -0.006068   -1.519511   -0.512154
      5          7           0       -0.835756   -2.568678   -0.260312
      6          7           0       -2.049450   -2.118133   -0.099973
      7          6           0       -0.740898   -0.354118   -0.501862
      8          7           0       -2.005867   -0.768804   -0.226599
      9          6           0       -3.188570    0.013026   -0.083838
     10          6           0       -3.086616    1.370743    0.227431
     11          6           0       -4.249213    2.128110    0.354373
     12          6           0       -5.499872    1.533125    0.185285
     13          6           0       -5.585672    0.172944   -0.116875
     14          6           0       -4.433690   -0.595275   -0.258668
     15          6           0        2.756358    0.486944    0.084712
     16          6           0        2.455606    1.409080    1.084625
     17          6           0        2.689575    2.763291    0.843883
     18          6           0        3.220115    3.172342   -0.380329
     19          6           0        3.520898    2.233310   -1.372026
     20          6           0        3.293443    0.878988   -1.144072
     21          8           0        3.700749   -2.009183    0.062556
     22          1           0        1.591697   -2.635878   -1.085864
     23          1           0       -0.483279    0.674602   -0.681923
     24          1           0       -2.115246    1.825392    0.382003
     25          1           0       -4.173517    3.182136    0.595236
     26          1           0       -6.402773    2.124992    0.288290
     27          1           0       -6.554728   -0.294839   -0.249903
     28          1           0       -4.480503   -1.648130   -0.500157
     29          1           0        2.049210    1.058666    2.024620
     30          1           0        2.459913    3.493278    1.610731
     31          1           0        3.400688    4.225021   -0.565589
     32          1           0        3.934837    2.556993   -2.320772
     33          1           0        3.522769    0.139758   -1.902176
 ---------------------------------------------------------------------

 SCF Done:  E(RB3LYP) =  -1308.27148304     A.U. after   11 cycles

 The electronic state is 1-A.
 Alpha  occ. eigenvalues --  -89.12530 -19.15832 -19.15655 -14.44819 -14.40436
 Alpha  occ. eigenvalues --  -14.38559 -14.36990 -10.26541 -10.25528 -10.24773
 Alpha  occ. eigenvalues --  -10.23750 -10.22030 -10.21873 -10.21371 -10.21236
 Alpha  occ. eigenvalues --  -10.21214 -10.21171 -10.20715 -10.20705 -10.20549
 Alpha  occ. eigenvalues --  -10.20324  -8.15104  -6.11612  -6.11519  -6.11381
 Alpha  occ. eigenvalues --   -1.12470  -1.11431  -1.01461  -0.96092  -0.93098
 Alpha  occ. eigenvalues --   -0.88234  -0.86485  -0.81343  -0.78666  -0.77051
 Alpha  occ. eigenvalues --   -0.76757  -0.76275  -0.69363  -0.66748  -0.65097
 Alpha  occ. eigenvalues --   -0.63026  -0.61602  -0.60784  -0.59926  -0.57213
 Alpha  occ. eigenvalues --   -0.55364  -0.52428  -0.52321  -0.50328  -0.49405
 Alpha  occ. eigenvalues --   -0.49003  -0.48499  -0.47782  -0.46329  -0.45894
 Alpha  occ. eigenvalues --   -0.45280  -0.44607  -0.44532  -0.43906  -0.39617
 Alpha  occ. eigenvalues --   -0.39105  -0.38663  -0.37760  -0.37139  -0.36840
 Alpha  occ. eigenvalues --   -0.36391  -0.35060  -0.34725  -0.33064  -0.32564
 Alpha  occ. eigenvalues --   -0.31994  -0.31057  -0.28865  -0.27962  -0.27422
 Alpha  occ. eigenvalues --   -0.26859  -0.26399  -0.24252
 Alpha virt. eigenvalues --   -0.04965  -0.04363  -0.02313  -0.01863   0.01218
 Alpha virt. eigenvalues --    0.01974   0.05989   0.07901   0.08193   0.08869
 Alpha virt. eigenvalues --    0.09903   0.10824   0.11776   0.12618   0.13661

 Mulliken charges:
               1
     1  O   -0.531680
     2  S    1.199176
     3  N   -0.800165
     4  C    0.401167
     5  N   -0.334342
     6  N   -0.082307
     7  C    0.035244
     8  N   -0.364422
     9  C    0.329771
    10  C   -0.166234
    11  C   -0.148518
    12  C   -0.124762
    13  C   -0.147885
    14  C   -0.150296
    15  C   -0.155603
    16  C   -0.147844
    17  C   -0.132143
    18  C   -0.121982
    19  C   -0.133889
    20  C   -0.128204
    21  O   -0.554429
    22  H    0.391198
    23  H    0.207426
    24  H    0.155990
    25  H    0.157450
    26  H    0.153676
    27  H    0.157421
    28  H    0.176566
    29  H    0.188108
    30  H    0.163940
    31  H    0.163160
    32  H    0.164507
    33  H    0.179906
 Sum of Mulliken charges =   0.00000

 Dipole moment (field-independent basis, Debye):
    X=             -2.8809    Y=              8.8619    Z=             -3.1241  Tot=              9.8282
 Quadrupole moment (field-independent basis, Debye-Ang):
   XX=           -116.9945   YY=           -122.7609   ZZ=           -127.0448
   XY=              7.3755   XZ=             -7.9220   YZ=              7.1805

 Normal termination of Gaussian 09 at Thu Aug  6 21:13:37 2020.
