 Gaussian 09, Revision D.01,

 -----------------
 #p b3lyp/6-31G(d)
 -----------------

 ----------------
 SM45.n.3.pdb.xyz
 ----------------
 Symbolic Z-matrix:
 Charge =  0 Multiplicity = 1

 SCF Done:  E(RB3LYP) =  -1308.23936022     A.U. after   16 cycles
 Normal termination of Gaussian 09 at Thu Aug  6 21:10:33 2020.
 Gaussian 09:  AM64L-G09RevD.01 24-Apr-2013

 ----------------------------------------------------------------------
 #p b3lyp/6-31G(d) scrf=(iefpcm,read,solvent=Water) geom=allcheck guess
 =read
 ----------------------------------------------------------------------

 Structure from the checkpoint file:  "SM45.n.3.pdb.xyz.mst.n.w.chk"
 ----------------
 SM45.n.3.pdb.xyz
 ----------------
 Charge =  0 Multiplicity = 1

                         Standard orientation:
 ---------------------------------------------------------------------
 Center     Atomic      Atomic             Coordinates (Angstroms)
 Number     Number       Type             X           Y           Z
 ---------------------------------------------------------------------
      1          8           0       -3.940907   -1.516396   -0.779163
      2         16           0       -2.752977   -1.163853    0.006984
      3          7           0       -1.443737   -1.663753   -0.962533
      4          6           0       -0.128876   -1.464964   -0.498195
      5          7           0        0.444430   -2.307736    0.405206
      6          7           0        1.667323   -1.910874    0.632258
      7          6           0        0.790170   -0.498358   -0.850817
      8          7           0        1.895206   -0.816126   -0.134655
      9          6           0        3.161101   -0.161858   -0.114672
     10          6           0        3.572431    0.577771   -1.225565
     11          6           0        4.808256    1.222217   -1.192302
     12          6           0        5.628527    1.117756   -0.068642
     13          6           0        5.206794    0.367593    1.031307
     14          6           0        3.969084   -0.270979    1.019584
     15          6           0       -2.688858    0.612510    0.164253
     16          6           0       -3.327163    1.397033   -0.798914
     17          6           0       -3.256850    2.783444   -0.688096
     18          6           0       -2.553616    3.367032    0.369424
     19          6           0       -1.920784    2.569487    1.324197
     20          6           0       -1.983268    1.179792    1.228377
     21          8           0       -2.533875   -1.748746    1.333681
     22          1           0       -1.591804   -1.351464   -1.924113
     23          1           0        0.734694    0.347969   -1.513998
     24          1           0        2.944336    0.638102   -2.106947
     25          1           0        5.130157    1.797608   -2.053498
     26          1           0        6.591403    1.616495   -0.049284
     27          1           0        5.838144    0.285430    1.909411
     28          1           0        3.623453   -0.843584    1.869772
     29          1           0       -3.876650    0.925655   -1.604215
     30          1           0       -3.754776    3.406645   -1.422736
     31          1           0       -2.503588    4.447519    0.451269
     32          1           0       -1.382080    3.026411    2.147631
     33          1           0       -1.511640    0.544569    1.967244
 ---------------------------------------------------------------------

 SCF Done:  E(RB3LYP) =  -1308.26940718     A.U. after   12 cycles

 The electronic state is 1-A.
 Alpha  occ. eigenvalues --  -89.12767 -19.16023 -19.16019 -14.44890 -14.40663
 Alpha  occ. eigenvalues --  -14.38750 -14.37345 -10.26607 -10.25275 -10.24817
 Alpha  occ. eigenvalues --  -10.23614 -10.21669 -10.21619 -10.20910 -10.20841
 Alpha  occ. eigenvalues --  -10.20759 -10.20749 -10.20548 -10.20323 -10.20255
 Alpha  occ. eigenvalues --  -10.20019  -8.15320  -6.11806  -6.11754  -6.11608
 Alpha  occ. eigenvalues --   -1.12742  -1.11586  -1.01798  -0.95984  -0.93265
 Alpha  occ. eigenvalues --   -0.87881  -0.86285  -0.81351  -0.78258  -0.76668
 Alpha  occ. eigenvalues --   -0.76572  -0.76033  -0.68917  -0.66883  -0.64933
 Alpha  occ. eigenvalues --   -0.62602  -0.61743  -0.61058  -0.58750  -0.56831
 Alpha  occ. eigenvalues --   -0.55526  -0.53056  -0.52192  -0.49940  -0.49589
 Alpha  occ. eigenvalues --   -0.48783  -0.48510  -0.47677  -0.45870  -0.45658
 Alpha  occ. eigenvalues --   -0.45198  -0.44584  -0.44123  -0.43489  -0.39216
 Alpha  occ. eigenvalues --   -0.39039  -0.38345  -0.37430  -0.36607  -0.36423
 Alpha  occ. eigenvalues --   -0.36140  -0.35120  -0.34225  -0.33498  -0.32763
 Alpha  occ. eigenvalues --   -0.32180  -0.31866  -0.29255  -0.27599  -0.27164
 Alpha  occ. eigenvalues --   -0.26697  -0.26548  -0.24540
 Alpha virt. eigenvalues --   -0.04781  -0.04225  -0.02046  -0.01593   0.01041
 Alpha virt. eigenvalues --    0.02007   0.06152   0.08196   0.08869   0.09315
 Alpha virt. eigenvalues --    0.09737   0.11260   0.12337   0.13000   0.14283

 Mulliken charges:
               1
     1  O   -0.569073
     2  S    1.185682
     3  N   -0.769879
     4  C    0.369679
     5  N   -0.343009
     6  N   -0.105215
     7  C    0.050851
     8  N   -0.353650
     9  C    0.327611
    10  C   -0.170299
    11  C   -0.156031
    12  C   -0.131348
    13  C   -0.155228
    14  C   -0.154524
    15  C   -0.151863
    16  C   -0.142247
    17  C   -0.137299
    18  C   -0.126324
    19  C   -0.136599
    20  C   -0.144842
    21  O   -0.568719
    22  H    0.422647
    23  H    0.230159
    24  H    0.175359
    25  H    0.165641
    26  H    0.161273
    27  H    0.164884
    28  H    0.175833
    29  H    0.186558
    30  H    0.171522
    31  H    0.170532
    32  H    0.171610
    33  H    0.186306
 Sum of Mulliken charges =   0.00000

 Dipole moment (field-independent basis, Debye):
    X=              5.9184    Y=             11.4493    Z=             -5.2396  Tot=             13.9129
 Quadrupole moment (field-independent basis, Debye-Ang):
   XX=           -124.0028   YY=           -134.8117   ZZ=           -115.3822
   XY=            -11.9538   XZ=              5.0216   YZ=              4.8901

 Normal termination of Gaussian 09 at Thu Aug  6 21:14:54 2020.
