 Gaussian 09, Revision D.01,

 -----------------
 #p b3lyp/6-31G(d)
 -----------------

 ----------------
 SM45.n.6.pdb.xyz
 ----------------
 Symbolic Z-matrix:
 Charge =  0 Multiplicity = 1

 SCF Done:  E(RB3LYP) =  -1308.23936996     A.U. after   16 cycles
 Normal termination of Gaussian 09 at Thu Aug  6 21:11:00 2020.
 Gaussian 09:  AM64L-G09RevD.01 24-Apr-2013

 ----------------------------------------------------------------------
 #p b3lyp/6-31G(d) scrf=(iefpcm,read,solvent=Water) geom=allcheck guess
 =read
 ----------------------------------------------------------------------

 Structure from the checkpoint file:  "SM45.n.6.pdb.xyz.mst.n.w.chk"
 ----------------
 SM45.n.6.pdb.xyz
 ----------------
 Charge =  0 Multiplicity = 1

                         Standard orientation:
 ---------------------------------------------------------------------
 Center     Atomic      Atomic             Coordinates (Angstroms)
 Number     Number       Type             X           Y           Z
 ---------------------------------------------------------------------
      1          8           0       -3.938014   -1.504112   -0.823629
      2         16           0       -2.765706   -1.160102   -0.008924
      3          7           0       -1.439281   -1.670640   -0.949428
      4          6           0       -0.131663   -1.459473   -0.470558
      5          7           0        0.427687   -2.274732    0.466155
      6          7           0        1.650855   -1.877134    0.693083
      7          6           0        0.796496   -0.510453   -0.845806
      8          7           0        1.892284   -0.810122   -0.108446
      9          6           0        3.163350   -0.166860   -0.105079
     10          6           0        3.951805   -0.217964    1.046588
     11          6           0        5.196251    0.409250    1.042755
     12          6           0        5.642184    1.091737   -0.090965
     13          6           0        4.840196    1.138989   -1.233040
     14          6           0        3.599703    0.504633   -1.249015
     15          6           0       -2.689155    0.615898    0.151193
     16          6           0       -3.276574    1.408432   -0.836644
     17          6           0       -3.195761    2.794415   -0.721836
     18          6           0       -2.533606    3.369532    0.365812
     19          6           0       -1.952312    2.563388    1.346632
     20          6           0       -2.025549    1.174162    1.246318
     21          8           0       -2.583804   -1.746694    1.322758
     22          1           0       -1.573984   -1.373378   -1.917360
     23          1           0        0.751672    0.313932   -1.536255
     24          1           0        3.588982   -0.737022    1.923052
     25          1           0        5.812625    0.372099    1.934528
     26          1           0        6.608550    1.583006   -0.086035
     27          1           0        5.181685    1.660855   -2.118561
     28          1           0        2.986306    0.519792   -2.142916
     29          1           0       -3.795420    0.944877   -1.666681
     30          1           0       -3.653024    3.422593   -1.477166
     31          1           0       -2.474858    4.448571    0.451648
     32          1           0       -1.445720    3.013475    2.192963
     33          1           0       -1.593965    0.533560    2.004841
 ---------------------------------------------------------------------

 SCF Done:  E(RB3LYP) =  -1308.26945386     A.U. after   12 cycles

 The electronic state is 1-A.
 Alpha  occ. eigenvalues --  -89.12778 -19.16037 -19.16016 -14.44865 -14.40659
 Alpha  occ. eigenvalues --  -14.38766 -14.37331 -10.26604 -10.25256 -10.24787
 Alpha  occ. eigenvalues --  -10.23618 -10.21660 -10.21632 -10.20906 -10.20830
 Alpha  occ. eigenvalues --  -10.20755 -10.20745 -10.20554 -10.20308 -10.20260
 Alpha  occ. eigenvalues --  -10.20024  -8.15330  -6.11816  -6.11764  -6.11618
 Alpha  occ. eigenvalues --   -1.12717  -1.11559  -1.01775  -0.95988  -0.93262
 Alpha  occ. eigenvalues --   -0.87882  -0.86274  -0.81340  -0.78265  -0.76660
 Alpha  occ. eigenvalues --   -0.76563  -0.76035  -0.68923  -0.66888  -0.64924
 Alpha  occ. eigenvalues --   -0.62607  -0.61763  -0.61069  -0.58750  -0.56836
 Alpha  occ. eigenvalues --   -0.55494  -0.53065  -0.52179  -0.49951  -0.49586
 Alpha  occ. eigenvalues --   -0.48784  -0.48474  -0.47679  -0.45886  -0.45640
 Alpha  occ. eigenvalues --   -0.45194  -0.44595  -0.44115  -0.43486  -0.39216
 Alpha  occ. eigenvalues --   -0.39027  -0.38353  -0.37429  -0.36602  -0.36430
 Alpha  occ. eigenvalues --   -0.36152  -0.35113  -0.34223  -0.33525  -0.32758
 Alpha  occ. eigenvalues --   -0.32192  -0.31830  -0.29261  -0.27581  -0.27162
 Alpha  occ. eigenvalues --   -0.26682  -0.26553  -0.24529
 Alpha virt. eigenvalues --   -0.04754  -0.04212  -0.02057  -0.01587   0.00997
 Alpha virt. eigenvalues --    0.01988   0.06121   0.08184   0.08901   0.09339
 Alpha virt. eigenvalues --    0.09734   0.11254   0.12346   0.12942   0.14305

 Mulliken charges:
               1
     1  O   -0.570244
     2  S    1.185776
     3  N   -0.769307
     4  C    0.370454
     5  N   -0.343929
     6  N   -0.105943
     7  C    0.050478
     8  N   -0.352147
     9  C    0.326193
    10  C   -0.154364
    11  C   -0.155011
    12  C   -0.131547
    13  C   -0.155814
    14  C   -0.169521
    15  C   -0.151867
    16  C   -0.142970
    17  C   -0.137081
    18  C   -0.126072
    19  C   -0.136947
    20  C   -0.144058
    21  O   -0.567894
    22  H    0.422744
    23  H    0.229895
    24  H    0.175422
    25  H    0.164927
    26  H    0.161256
    27  H    0.165654
    28  H    0.175271
    29  H    0.186479
    30  H    0.171564
    31  H    0.170603
    32  H    0.171485
    33  H    0.186516
 Sum of Mulliken charges =   0.00000

 Dipole moment (field-independent basis, Debye):
    X=              6.0791    Y=             11.3084    Z=             -5.3227  Tot=             13.8984
 Quadrupole moment (field-independent basis, Debye-Ang):
   XX=           -124.6634   YY=           -134.6713   ZZ=           -114.9135
   XY=            -12.0630   XZ=              4.2583   YZ=              5.4247

 Normal termination of Gaussian 09 at Thu Aug  6 21:15:48 2020.
