 Gaussian 09, Revision D.01,

 -----------------
 #p b3lyp/6-31G(d)
 -----------------

 ----------------
 SM45.n.8.pdb.xyz
 ----------------
 Symbolic Z-matrix:
 Charge =  0 Multiplicity = 1

 SCF Done:  E(RB3LYP) =  -1308.24534680     A.U. after   16 cycles
 Normal termination of Gaussian 09 at Thu Aug  6 21:10:29 2020.
 Gaussian 09:  AM64L-G09RevD.01 24-Apr-2013

 ----------------------------------------------------------------------
 #p b3lyp/6-31G(d) scrf=(iefpcm,read,solvent=n-Octanol) geom=allcheck g
 uess=read
 ----------------------------------------------------------------------

 Structure from the checkpoint file:  "SM45.n.8.pdb.xyz.mst.n.o.chk"
 ----------------
 SM45.n.8.pdb.xyz
 ----------------
 Charge =  0 Multiplicity = 1

                         Standard orientation:
 ---------------------------------------------------------------------
 Center     Atomic      Atomic             Coordinates (Angstroms)
 Number     Number       Type             X           Y           Z
 ---------------------------------------------------------------------
      1          8           0        1.560154   -0.945049    1.760707
      2         16           0        2.154451   -1.248468    0.456683
      3          7           0        0.955623   -1.071349   -0.745379
      4          6           0       -0.263032   -0.439514   -0.462387
      5          7           0       -0.322762    0.883458   -0.148978
      6          7           0       -1.570142    1.222229    0.028813
      7          6           0       -1.543623   -0.948031   -0.487459
      8          7           0       -2.327566    0.123353   -0.192008
      9          6           0       -3.746539    0.187116   -0.097040
     10          6           0       -4.526913   -0.771721   -0.746231
     11          6           0       -5.914005   -0.706288   -0.636885
     12          6           0       -6.516422    0.313267    0.101746
     13          6           0       -5.722352    1.270424    0.737314
     14          6           0       -4.334567    1.210374    0.647086
     15          6           0        3.355602    0.014943    0.063325
     16          6           0        2.968064    1.356271    0.030351
     17          6           0        3.940048    2.319728   -0.226245
     18          6           0        5.269478    1.943780   -0.435876
     19          6           0        5.636904    0.598331   -0.396775
     20          6           0        4.675107   -0.380866   -0.146054
     21          8           0        2.766673   -2.556631    0.193807
     22          1           0        0.896404   -1.922908   -1.298467
     23          1           0       -1.933949   -1.933874   -0.667016
     24          1           0       -4.057836   -1.549373   -1.338245
     25          1           0       -6.522206   -1.449807   -1.138346
     26          1           0       -7.596311    0.362049    0.180527
     27          1           0       -6.183657    2.063995    1.314625
     28          1           0       -3.703103    1.937645    1.141348
     29          1           0        1.926641    1.626641    0.171133
     30          1           0        3.658487    3.366388   -0.264612
     31          1           0        6.019534    2.702342   -0.632533
     32          1           0        6.667833    0.308066   -0.562538
     33          1           0        4.929762   -1.432956   -0.115276
 ---------------------------------------------------------------------

 SCF Done:  E(RB3LYP) =  -1308.27095284     A.U. after   11 cycles

 The electronic state is 1-A.
 Alpha  occ. eigenvalues --  -89.12479 -19.15674 -19.15536 -14.44759 -14.40403
 Alpha  occ. eigenvalues --  -14.38590 -14.37003 -10.26760 -10.25419 -10.24615
 Alpha  occ. eigenvalues --  -10.23188 -10.21266 -10.21106 -10.20898 -10.20712
 Alpha  occ. eigenvalues --  -10.20637 -10.20611 -10.20579 -10.20514 -10.20490
 Alpha  occ. eigenvalues --  -10.20255  -8.15011  -6.11542  -6.11436  -6.11267
 Alpha  occ. eigenvalues --   -1.12355  -1.11465  -1.01350  -0.95946  -0.93093
 Alpha  occ. eigenvalues --   -0.87560  -0.86413  -0.81377  -0.78032  -0.76747
 Alpha  occ. eigenvalues --   -0.76337  -0.76237  -0.69042  -0.67137  -0.64936
 Alpha  occ. eigenvalues --   -0.62483  -0.61464  -0.61063  -0.58589  -0.57005
 Alpha  occ. eigenvalues --   -0.54934  -0.53429  -0.51828  -0.50131  -0.49328
 Alpha  occ. eigenvalues --   -0.49015  -0.48479  -0.47139  -0.45849  -0.45570
 Alpha  occ. eigenvalues --   -0.45086  -0.44820  -0.43887  -0.43749  -0.39429
 Alpha  occ. eigenvalues --   -0.38769  -0.38281  -0.37753  -0.36678  -0.36344
 Alpha  occ. eigenvalues --   -0.35996  -0.35269  -0.34278  -0.33082  -0.32070
 Alpha  occ. eigenvalues --   -0.31743  -0.31414  -0.28928  -0.27227  -0.26804
 Alpha  occ. eigenvalues --   -0.26715  -0.26182  -0.23941
 Alpha virt. eigenvalues --   -0.04658  -0.03630  -0.01787  -0.01649   0.01368
 Alpha virt. eigenvalues --    0.02219   0.05787   0.07268   0.08257   0.09187
 Alpha virt. eigenvalues --    0.10118   0.11038   0.12253   0.12619   0.14494

 Mulliken charges:
               1
     1  O   -0.531353
     2  S    1.191088
     3  N   -0.811140
     4  C    0.442703
     5  N   -0.336046
     6  N   -0.075069
     7  C    0.015054
     8  N   -0.366093
     9  C    0.331468
    10  C   -0.169534
    11  C   -0.148943
    12  C   -0.125205
    13  C   -0.148245
    14  C   -0.151215
    15  C   -0.148428
    16  C   -0.143449
    17  C   -0.139528
    18  C   -0.124306
    19  C   -0.133592
    20  C   -0.149715
    21  O   -0.552453
    22  H    0.394364
    23  H    0.213847
    24  H    0.162244
    25  H    0.157125
    26  H    0.153170
    27  H    0.157026
    28  H    0.176204
    29  H    0.203459
    30  H    0.158929
    31  H    0.157561
    32  H    0.158628
    33  H    0.181444
 Sum of Mulliken charges =   0.00000

 Dipole moment (field-independent basis, Debye):
    X=             -3.6687    Y=             -0.1935    Z=             -3.9205  Tot=              5.3728
 Quadrupole moment (field-independent basis, Debye-Ang):
   XX=            -82.8939   YY=           -123.1015   ZZ=           -131.4324
   XY=             15.8400   XZ=             -5.1885   YZ=              9.5547

 Normal termination of Gaussian 09 at Thu Aug  6 21:14:22 2020.
