 Gaussian 09, Revision D.01,

 -----------------
 #p b3lyp/6-31G(d)
 -----------------

 ----------------
 SM45.n.3.pdb.xyz
 ----------------
 Symbolic Z-matrix:
 Charge =  0 Multiplicity = 1

 SCF Done:  E(RB3LYP) =  -1308.24044275     A.U. after   15 cycles
 Normal termination of Gaussian 09 at Thu Aug  6 21:09:57 2020.
 Gaussian 09:  AM64L-G09RevD.01 24-Apr-2013

 ----------------------------------------------------------------------
 #p b3lyp/6-31G(d) scrf=(iefpcm,read,solvent=n-Octanol) geom=allcheck g
 uess=read
 ----------------------------------------------------------------------

 Structure from the checkpoint file:  "SM45.n.3.pdb.xyz.mst.n.o.chk"
 ----------------
 SM45.n.3.pdb.xyz
 ----------------
 Charge =  0 Multiplicity = 1

                         Standard orientation:
 ---------------------------------------------------------------------
 Center     Atomic      Atomic             Coordinates (Angstroms)
 Number     Number       Type             X           Y           Z
 ---------------------------------------------------------------------
      1          8           0       -3.956162   -1.436308   -0.849478
      2         16           0       -2.793066   -1.147900   -0.008313
      3          7           0       -1.467099   -1.659888   -0.951708
      4          6           0       -0.151762   -1.468193   -0.490377
      5          7           0        0.426125   -2.316421    0.406984
      6          7           0        1.647198   -1.924626    0.628869
      7          6           0        0.766324   -0.500541   -0.843228
      8          7           0        1.876864   -0.824461   -0.136284
      9          6           0        3.145819   -0.178241   -0.121491
     10          6           0        3.520016    0.634959   -1.192251
     11          6           0        4.758783    1.272357   -1.161184
     12          6           0        5.619191    1.089788   -0.079102
     13          6           0        5.234474    0.266393    0.980505
     14          6           0        3.995465   -0.368151    0.970997
     15          6           0       -2.664487    0.625290    0.173377
     16          6           0       -3.280150    1.443041   -0.775619
     17          6           0       -3.162802    2.825251   -0.648130
     18          6           0       -2.437164    3.370237    0.414197
     19          6           0       -1.829477    2.539343    1.356819
     20          6           0       -1.940739    1.153994    1.243406
     21          8           0       -2.628311   -1.746180    1.314341
     22          1           0       -1.621071   -1.418888   -1.927797
     23          1           0        0.710502    0.350404   -1.498450
     24          1           0        2.861407    0.756213   -2.043331
     25          1           0        5.051151    1.904766   -1.992544
     26          1           0        6.582894    1.584524   -0.060590
     27          1           0        5.898782    0.121530    1.825916
     28          1           0        3.677209   -1.003894    1.786875
     29          1           0       -3.853225    0.995633   -1.578354
     30          1           0       -3.642479    3.475332   -1.370549
     31          1           0       -2.349472    4.447255    0.509823
     32          1           0       -1.275968    2.967208    2.185113
     33          1           0       -1.497464    0.490825    1.975450
 ---------------------------------------------------------------------

 SCF Done:  E(RB3LYP) =  -1308.27002945     A.U. after   11 cycles

 The electronic state is 1-A.
 Alpha  occ. eigenvalues --  -89.12379 -19.15553 -19.15546 -14.44879 -14.40487
 Alpha  occ. eigenvalues --  -14.38693 -14.37029 -10.26637 -10.25575 -10.25103
 Alpha  occ. eigenvalues --  -10.23590 -10.21840 -10.21814 -10.21259 -10.21246
 Alpha  occ. eigenvalues --  -10.21116 -10.21102 -10.20772 -10.20737 -10.20595
 Alpha  occ. eigenvalues --  -10.20348  -8.14920  -6.11419  -6.11342  -6.11213
 Alpha  occ. eigenvalues --   -1.12444  -1.11496  -1.01530  -0.95948  -0.93325
 Alpha  occ. eigenvalues --   -0.88082  -0.86571  -0.81368  -0.78388  -0.76943
 Alpha  occ. eigenvalues --   -0.76840  -0.76320  -0.68834  -0.67054  -0.65150
 Alpha  occ. eigenvalues --   -0.62912  -0.61879  -0.61281  -0.59017  -0.57187
 Alpha  occ. eigenvalues --   -0.55761  -0.53318  -0.52190  -0.50280  -0.49615
 Alpha  occ. eigenvalues --   -0.48938  -0.48664  -0.47779  -0.46210  -0.45947
 Alpha  occ. eigenvalues --   -0.45021  -0.44858  -0.44458  -0.43920  -0.39392
 Alpha  occ. eigenvalues --   -0.39242  -0.38611  -0.37835  -0.36759  -0.36642
 Alpha  occ. eigenvalues --   -0.36057  -0.34712  -0.33950  -0.33075  -0.32503
 Alpha  occ. eigenvalues --   -0.31909  -0.31534  -0.28629  -0.27736  -0.27328
 Alpha  occ. eigenvalues --   -0.26903  -0.26792  -0.24566
 Alpha virt. eigenvalues --   -0.04964  -0.04278  -0.02327  -0.01902   0.01247
 Alpha virt. eigenvalues --    0.01903   0.05807   0.08021   0.08176   0.09070
 Alpha virt. eigenvalues --    0.10284   0.10471   0.12130   0.12447   0.13786

 Mulliken charges:
               1
     1  O   -0.551519
     2  S    1.191445
     3  N   -0.765759
     4  C    0.367823
     5  N   -0.306133
     6  N   -0.081455
     7  C    0.035282
     8  N   -0.365843
     9  C    0.328845
    10  C   -0.170101
    11  C   -0.148433
    12  C   -0.124311
    13  C   -0.147944
    14  C   -0.150674
    15  C   -0.154988
    16  C   -0.146346
    17  C   -0.131687
    18  C   -0.123211
    19  C   -0.132285
    20  C   -0.144343
    21  O   -0.541160
    22  H    0.390053
    23  H    0.210003
    24  H    0.161162
    25  H    0.157625
    26  H    0.153905
    27  H    0.157763
    28  H    0.177420
    29  H    0.182594
    30  H    0.162892
    31  H    0.161980
    32  H    0.163374
    33  H    0.184027
 Sum of Mulliken charges =   0.00000

 Dipole moment (field-independent basis, Debye):
    X=              5.6740    Y=              9.8988    Z=             -4.2132  Tot=             12.1627
 Quadrupole moment (field-independent basis, Debye-Ang):
   XX=           -124.2170   YY=           -132.6784   ZZ=           -116.9489
   XY=            -10.5311   XZ=              4.7648   YZ=              3.7714

 Normal termination of Gaussian 09 at Thu Aug  6 21:13:43 2020.
