 Gaussian 09, Revision D.01,

 -----------------
 #p b3lyp/6-31G(d)
 -----------------

 ----------------
 SM45.n.9.pdb.xyz
 ----------------
 Symbolic Z-matrix:
 Charge =  0 Multiplicity = 1

 SCF Done:  E(RB3LYP) =  -1308.24629951     A.U. after   15 cycles
 Normal termination of Gaussian 09 at Thu Aug  6 21:09:54 2020.
 Gaussian 09:  AM64L-G09RevD.01 24-Apr-2013

 ----------------------------------------------------------------------
 #p b3lyp/6-31G(d) scrf=(iefpcm,read,solvent=n-Octanol) geom=allcheck g
 uess=read
 ----------------------------------------------------------------------

 Structure from the checkpoint file:  "SM45.n.9.pdb.xyz.mst.n.o.chk"
 ----------------
 SM45.n.9.pdb.xyz
 ----------------
 Charge =  0 Multiplicity = 1

                         Standard orientation:
 ---------------------------------------------------------------------
 Center     Atomic      Atomic             Coordinates (Angstroms)
 Number     Number       Type             X           Y           Z
 ---------------------------------------------------------------------
      1          8           0        1.877083   -1.445065    1.712253
      2         16           0        2.489583   -1.260823    0.392303
      3          7           0        1.386747   -1.633009   -0.864385
      4          6           0        0.010387   -1.475749   -0.637654
      5          7           0       -0.827782   -2.543117   -0.540620
      6          7           0       -2.047540   -2.107691   -0.373766
      7          6           0       -0.723415   -0.315358   -0.514761
      8          7           0       -1.997495   -0.753943   -0.333347
      9          6           0       -3.183613    0.009628   -0.134583
     10          6           0       -4.287898   -0.593861    0.471191
     11          6           0       -5.447218    0.153813    0.663624
     12          6           0       -5.501252    1.492003    0.266085
     13          6           0       -4.389367    2.081581   -0.335137
     14          6           0       -3.227427    1.343529   -0.546479
     15          6           0        2.753306    0.488186    0.164385
     16          6           0        3.343520    0.946152   -1.015568
     17          6           0        3.576084    2.310801   -1.161345
     18          6           0        3.225048    3.194472   -0.136482
     19          6           0        2.641249    2.720199    1.038284
     20          6           0        2.401573    1.355038    1.197887
     21          8           0        3.698645   -2.003107    0.022560
     22          1           0        1.622755   -2.559175   -1.222447
     23          1           0       -0.451151    0.725146   -0.517949
     24          1           0       -4.222874   -1.628356    0.780244
     25          1           0       -6.307101   -0.310724    1.133083
     26          1           0       -6.404480    2.069819    0.423974
     27          1           0       -4.425472    3.117541   -0.651971
     28          1           0       -2.371206    1.795517   -1.034994
     29          1           0        3.609252    0.247220   -1.800023
     30          1           0        4.032329    2.683659   -2.071903
     31          1           0        3.409116    4.256266   -0.255130
     32          1           0        2.373193    3.409405    1.831165
     33          1           0        1.953104    0.953925    2.098741
 ---------------------------------------------------------------------

 SCF Done:  E(RB3LYP) =  -1308.27131970     A.U. after   11 cycles

 The electronic state is 1-A.
 Alpha  occ. eigenvalues --  -89.12572 -19.15876 -19.15720 -14.44826 -14.40413
 Alpha  occ. eigenvalues --  -14.38611 -14.36980 -10.26587 -10.25523 -10.24759
 Alpha  occ. eigenvalues --  -10.23775 -10.22039 -10.21925 -10.21382 -10.21237
 Alpha  occ. eigenvalues --  -10.21229 -10.21190 -10.20731 -10.20689 -10.20571
 Alpha  occ. eigenvalues --  -10.20332  -8.15147  -6.11656  -6.11562  -6.11424
 Alpha  occ. eigenvalues --   -1.12512  -1.11415  -1.01516  -0.96128  -0.93074
 Alpha  occ. eigenvalues --   -0.88265  -0.86477  -0.81340  -0.78705  -0.77072
 Alpha  occ. eigenvalues --   -0.76753  -0.76277  -0.69407  -0.66754  -0.65087
 Alpha  occ. eigenvalues --   -0.63042  -0.61636  -0.60797  -0.59883  -0.57210
 Alpha  occ. eigenvalues --   -0.55352  -0.52405  -0.52321  -0.50369  -0.49449
 Alpha  occ. eigenvalues --   -0.49126  -0.48355  -0.47808  -0.46338  -0.45909
 Alpha  occ. eigenvalues --   -0.45306  -0.44571  -0.44549  -0.43860  -0.39739
 Alpha  occ. eigenvalues --   -0.39133  -0.38662  -0.37750  -0.37200  -0.36860
 Alpha  occ. eigenvalues --   -0.36308  -0.35116  -0.34822  -0.33079  -0.32641
 Alpha  occ. eigenvalues --   -0.31982  -0.31179  -0.28868  -0.27958  -0.27442
 Alpha  occ. eigenvalues --   -0.26911  -0.26256  -0.24238
 Alpha virt. eigenvalues --   -0.04921  -0.04442  -0.02339  -0.01847   0.01207
 Alpha virt. eigenvalues --    0.01932   0.06035   0.07994   0.08116   0.08771
 Alpha virt. eigenvalues --    0.09822   0.10770   0.11768   0.12500   0.13627

 Mulliken charges:
               1
     1  O   -0.531797
     2  S    1.200800
     3  N   -0.800552
     4  C    0.402837
     5  N   -0.336511
     6  N   -0.083910
     7  C    0.037739
     8  N   -0.364047
     9  C    0.328997
    10  C   -0.150093
    11  C   -0.148075
    12  C   -0.124676
    13  C   -0.148207
    14  C   -0.169512
    15  C   -0.157084
    16  C   -0.127499
    17  C   -0.133946
    18  C   -0.121515
    19  C   -0.132087
    20  C   -0.147669
    21  O   -0.554041
    22  H    0.390617
    23  H    0.202980
    24  H    0.176924
    25  H    0.157792
    26  H    0.153786
    27  H    0.157521
    28  H    0.159992
    29  H    0.180254
    30  H    0.164753
    31  H    0.163326
    32  H    0.164320
    33  H    0.188582
 Sum of Mulliken charges =   0.00000

 Dipole moment (field-independent basis, Debye):
    X=             -2.7212    Y=              9.0460    Z=             -2.2029  Tot=              9.6999
 Quadrupole moment (field-independent basis, Debye-Ang):
   XX=           -117.2670   YY=           -123.5586   ZZ=           -125.8525
   XY=              6.8495   XZ=            -11.3396   YZ=              2.2212

 Normal termination of Gaussian 09 at Thu Aug  6 21:13:45 2020.
