 Gaussian 09, Revision D.01,

 -----------------
 #p b3lyp/6-31G(d)
 -----------------

 ----------------
 SM45.n.5.pdb.xyz
 ----------------
 Symbolic Z-matrix:
 Charge =  0 Multiplicity = 1

 SCF Done:  E(RB3LYP) =  -1308.24619900     A.U. after   15 cycles
 Normal termination of Gaussian 09 at Thu Aug  6 21:09:55 2020.
 Gaussian 09:  AM64L-G09RevD.01 24-Apr-2013

 ----------------------------------------------------------------------
 #p b3lyp/6-31G(d) scrf=(iefpcm,read,solvent=n-Octanol) geom=allcheck g
 uess=read
 ----------------------------------------------------------------------

 Structure from the checkpoint file:  "SM45.n.5.pdb.xyz.mst.n.o.chk"
 ----------------
 SM45.n.5.pdb.xyz
 ----------------
 Charge =  0 Multiplicity = 1

                         Standard orientation:
 ---------------------------------------------------------------------
 Center     Atomic      Atomic             Coordinates (Angstroms)
 Number     Number       Type             X           Y           Z
 ---------------------------------------------------------------------
      1          8           0       -3.696655   -2.003604   -0.016892
      2         16           0       -2.489871   -1.265376    0.368348
      3          7           0       -1.380597   -1.614186   -0.893820
      4          6           0       -0.004715   -1.467566   -0.645401
      5          7           0        0.821444   -2.537774   -0.485210
      6          7           0        2.040805   -2.106271   -0.308983
      7          6           0        0.738136   -0.310629   -0.553204
      8          7           0        2.002855   -0.751484   -0.326740
      9          6           0        3.190896    0.009374   -0.136275
     10          6           0        3.248389    1.330180   -0.586093
     11          6           0        4.413455    2.067642   -0.384060
     12          6           0        5.513313    1.488523    0.248826
     13          6           0        5.444392    0.164908    0.685741
     14          6           0        4.283379   -0.581242    0.501848
     15          6           0       -2.762498    0.487652    0.169341
     16          6           0       -3.378372    0.957314   -0.992261
     17          6           0       -3.614409    2.322783   -1.118688
     18          6           0       -3.241704    3.196838   -0.092999
     19          6           0       -2.632063    2.710706    1.064147
     20          6           0       -2.388630    1.343717    1.203573
     21          8           0       -1.878335   -1.471358    1.685474
     22          1           0       -1.618181   -2.531805   -1.268836
     23          1           0        0.476661    0.731919   -0.609975
     24          1           0        2.401629    1.771626   -1.098912
     25          1           0        4.459456    3.093674   -0.732249
     26          1           0        6.418724    2.064755    0.401282
     27          1           0        6.294882   -0.290833    1.179304
     28          1           0        4.209505   -1.606697    0.840886
     29          1           0       -3.663475    0.268022   -1.777879
     30          1           0       -4.089705    2.705740   -2.013933
     31          1           0       -3.429226    4.259794   -0.196924
     32          1           0       -2.348149    3.390689    1.859353
     33          1           0       -1.923232    0.935636    2.091974
 ---------------------------------------------------------------------

 SCF Done:  E(RB3LYP) =  -1308.27133181     A.U. after   11 cycles

 The electronic state is 1-A.
 Alpha  occ. eigenvalues --  -89.12516 -19.15873 -19.15700 -14.44845 -14.40434
 Alpha  occ. eigenvalues --  -14.38551 -14.37002 -10.26545 -10.25524 -10.24806
 Alpha  occ. eigenvalues --  -10.23765 -10.22000 -10.21899 -10.21362 -10.21240
 Alpha  occ. eigenvalues --  -10.21191 -10.21171 -10.20726 -10.20710 -10.20546
 Alpha  occ. eigenvalues --  -10.20322  -8.15096  -6.11602  -6.11512  -6.11373
 Alpha  occ. eigenvalues --   -1.12470  -1.11452  -1.01499  -0.96061  -0.93067
 Alpha  occ. eigenvalues --   -0.88239  -0.86498  -0.81347  -0.78662  -0.77054
 Alpha  occ. eigenvalues --   -0.76775  -0.76266  -0.69326  -0.66774  -0.65090
 Alpha  occ. eigenvalues --   -0.63016  -0.61608  -0.60777  -0.59891  -0.57216
 Alpha  occ. eigenvalues --   -0.55333  -0.52412  -0.52306  -0.50353  -0.49445
 Alpha  occ. eigenvalues --   -0.49108  -0.48405  -0.47796  -0.46319  -0.45923
 Alpha  occ. eigenvalues --   -0.45287  -0.44584  -0.44535  -0.43856  -0.39684
 Alpha  occ. eigenvalues --   -0.39108  -0.38657  -0.37745  -0.37174  -0.36846
 Alpha  occ. eigenvalues --   -0.36306  -0.34999  -0.34797  -0.33063  -0.32615
 Alpha  occ. eigenvalues --   -0.31995  -0.31156  -0.28843  -0.27959  -0.27418
 Alpha  occ. eigenvalues --   -0.26915  -0.26279  -0.24336
 Alpha virt. eigenvalues --   -0.04939  -0.04405  -0.02308  -0.01860   0.01140
 Alpha virt. eigenvalues --    0.01913   0.05994   0.07995   0.08087   0.08838
 Alpha virt. eigenvalues --    0.09817   0.10756   0.11751   0.12624   0.13654

 Mulliken charges:
               1
     1  O   -0.555487
     2  S    1.201099
     3  N   -0.798976
     4  C    0.396948
     5  N   -0.333370
     6  N   -0.083479
     7  C    0.039293
     8  N   -0.364527
     9  C    0.330722
    10  C   -0.170490
    11  C   -0.148404
    12  C   -0.124594
    13  C   -0.147644
    14  C   -0.150727
    15  C   -0.155071
    16  C   -0.128095
    17  C   -0.133878
    18  C   -0.121796
    19  C   -0.132148
    20  C   -0.147543
    21  O   -0.531809
    22  H    0.390211
    23  H    0.203680
    24  H    0.159989
    25  H    0.157659
    26  H    0.153734
    27  H    0.157674
    28  H    0.177284
    29  H    0.180036
    30  H    0.164397
    31  H    0.163107
    32  H    0.164123
    33  H    0.188080
 Sum of Mulliken charges =   0.00000

 Dipole moment (field-independent basis, Debye):
    X=              2.7923    Y=              9.0844    Z=             -2.3198  Tot=              9.7829
 Quadrupole moment (field-independent basis, Debye-Ang):
   XX=           -116.9745   YY=           -123.9628   ZZ=           -125.3909
   XY=             -6.9437   XZ=             10.9064   YZ=              2.4765

 Normal termination of Gaussian 09 at Thu Aug  6 21:13:25 2020.
