 Gaussian 09, Revision D.01,

 -----------------
 #p b3lyp/6-31G(d)
 -----------------

 ----------------
 SM45.n.4.pdb.xyz
 ----------------
 Symbolic Z-matrix:
 Charge =  0 Multiplicity = 1

 SCF Done:  E(RB3LYP) =  -1308.24476090     A.U. after   16 cycles
 Normal termination of Gaussian 09 at Thu Aug  6 21:10:33 2020.
 Gaussian 09:  AM64L-G09RevD.01 24-Apr-2013

 ----------------------------------------------------------------------
 #p b3lyp/6-31G(d) scrf=(iefpcm,read,solvent=Water) geom=allcheck guess
 =read
 ----------------------------------------------------------------------

 Structure from the checkpoint file:  "SM45.n.4.pdb.xyz.mst.n.w.chk"
 ----------------
 SM45.n.4.pdb.xyz
 ----------------
 Charge =  0 Multiplicity = 1

                         Standard orientation:
 ---------------------------------------------------------------------
 Center     Atomic      Atomic             Coordinates (Angstroms)
 Number     Number       Type             X           Y           Z
 ---------------------------------------------------------------------
      1          8           0        1.567005   -0.856001    1.774615
      2         16           0        2.142090   -1.206950    0.468357
      3          7           0        0.947165   -0.997149   -0.721418
      4          6           0       -0.277350   -0.386517   -0.414910
      5          7           0       -0.355722    0.920764   -0.045590
      6          7           0       -1.613486    1.238377    0.126145
      7          6           0       -1.553194   -0.905975   -0.482062
      8          7           0       -2.351537    0.140308   -0.152879
      9          6           0       -3.774244    0.184514   -0.091300
     10          6           0       -4.525697   -0.649690   -0.922011
     11          6           0       -5.916686   -0.607928   -0.846540
     12          6           0       -6.549433    0.269891    0.034893
     13          6           0       -5.785248    1.106822    0.851481
     14          6           0       -4.393414    1.064246    0.799132
     15          6           0        3.391966   -0.001016    0.050266
     16          6           0        3.048836    1.351201   -0.014797
     17          6           0        4.050142    2.278231   -0.294701
     18          6           0        5.366605    1.853968   -0.496983
     19          6           0        5.690077    0.497946   -0.427011
     20          6           0        4.698202   -0.444395   -0.151969
     21          8           0        2.706932   -2.546543    0.250354
     22          1           0        0.882992   -1.829877   -1.306708
     23          1           0       -1.927755   -1.887126   -0.715414
     24          1           0       -4.029992   -1.311460   -1.622513
     25          1           0       -6.502685   -1.255748   -1.488693
     26          1           0       -7.632061    0.302363    0.085364
     27          1           0       -6.271637    1.787277    1.540623
     28          1           0       -3.788575    1.696064    1.436488
     29          1           0        2.019480    1.663155    0.127894
     30          1           0        3.801799    3.332417   -0.356064
     31          1           0        6.140712    2.581970   -0.714260
     32          1           0        6.710442    0.170461   -0.587392
     33          1           0        4.924033   -1.501829   -0.097510
 ---------------------------------------------------------------------

 SCF Done:  E(RB3LYP) =  -1308.26824020     A.U. after   11 cycles

 The electronic state is 1-A.
 Alpha  occ. eigenvalues --  -89.12968 -19.16181 -19.16033 -14.44698 -14.40506
 Alpha  occ. eigenvalues --  -14.38501 -14.37194 -10.26700 -10.25166 -10.24363
 Alpha  occ. eigenvalues --  -10.23384 -10.21319 -10.21138 -10.20771 -10.20633
 Alpha  occ. eigenvalues --  -10.20519 -10.20508 -10.20495 -10.20276 -10.20223
 Alpha  occ. eigenvalues --  -10.19992  -8.15485  -6.12008  -6.11924  -6.11737
 Alpha  occ. eigenvalues --   -1.12686  -1.11434  -1.01705  -0.95894  -0.93025
 Alpha  occ. eigenvalues --   -0.87633  -0.86190  -0.81339  -0.78083  -0.76523
 Alpha  occ. eigenvalues --   -0.76366  -0.75999  -0.69255  -0.66906  -0.64693
 Alpha  occ. eigenvalues --   -0.62473  -0.61409  -0.60949  -0.58470  -0.56712
 Alpha  occ. eigenvalues --   -0.54913  -0.53279  -0.51963  -0.49883  -0.49347
 Alpha  occ. eigenvalues --   -0.49072  -0.48177  -0.47295  -0.45699  -0.45450
 Alpha  occ. eigenvalues --   -0.45379  -0.44516  -0.43837  -0.43435  -0.39286
 Alpha  occ. eigenvalues --   -0.38777  -0.38223  -0.37519  -0.36783  -0.36209
 Alpha  occ. eigenvalues --   -0.36133  -0.35461  -0.34388  -0.33589  -0.32377
 Alpha  occ. eigenvalues --   -0.31965  -0.31740  -0.29415  -0.27252  -0.26832
 Alpha  occ. eigenvalues --   -0.26554  -0.26136  -0.23986
 Alpha virt. eigenvalues --   -0.04398  -0.03768  -0.01724  -0.01542   0.01107
 Alpha virt. eigenvalues --    0.02238   0.06023   0.07068   0.08784   0.09124
 Alpha virt. eigenvalues --    0.10228   0.11762   0.12275   0.13123   0.14660

 Mulliken charges:
               1
     1  O   -0.560654
     2  S    1.198622
     3  N   -0.813088
     4  C    0.435864
     5  N   -0.360022
     6  N   -0.102015
     7  C    0.033506
     8  N   -0.349311
     9  C    0.323183
    10  C   -0.168557
    11  C   -0.155780
    12  C   -0.132013
    13  C   -0.155237
    14  C   -0.153786
    15  C   -0.146000
    16  C   -0.146611
    17  C   -0.141937
    18  C   -0.128585
    19  C   -0.138674
    20  C   -0.148387
    21  O   -0.565324
    22  H    0.425320
    23  H    0.227148
    24  H    0.174783
    25  H    0.165234
    26  H    0.160878
    27  H    0.164764
    28  H    0.174398
    29  H    0.193265
    30  H    0.168648
    31  H    0.167546
    32  H    0.168544
    33  H    0.184278
 Sum of Mulliken charges =   0.00000

 Dipole moment (field-independent basis, Debye):
    X=             -3.6412    Y=             -0.7988    Z=             -5.0224  Tot=              6.2547
 Quadrupole moment (field-independent basis, Debye-Ang):
   XX=            -77.2782   YY=           -124.8230   ZZ=           -129.8381
   XY=             17.3065   XZ=             -5.7816   YZ=             10.1351

 Normal termination of Gaussian 09 at Thu Aug  6 21:14:35 2020.
