 Gaussian 09, Revision D.01,

 -----------------
 #p b3lyp/6-31G(d)
 -----------------

 ----------------
 SM45.n.1.pdb.xyz
 ----------------
 Symbolic Z-matrix:
 Charge =  0 Multiplicity = 1

 SCF Done:  E(RB3LYP) =  -1308.24627217     A.U. after   15 cycles
 Normal termination of Gaussian 09 at Thu Aug  6 21:09:16 2020.
 Gaussian 09:  AM64L-G09RevD.01 24-Apr-2013

 ----------------------------------------------------------------------
 #p b3lyp/6-31G(d) scrf=(iefpcm,read,solvent=n-Octanol) geom=allcheck g
 uess=read
 ----------------------------------------------------------------------

 Structure from the checkpoint file:  "SM45.n.1.pdb.xyz.mst.n.o.chk"
 ----------------
 SM45.n.1.pdb.xyz
 ----------------
 Charge =  0 Multiplicity = 1

                         Standard orientation:
 ---------------------------------------------------------------------
 Center     Atomic      Atomic             Coordinates (Angstroms)
 Number     Number       Type             X           Y           Z
 ---------------------------------------------------------------------
      1          8           0        1.933169   -1.341682    1.778069
      2         16           0        2.504701   -1.242964    0.430904
      3          7           0        1.364710   -1.698558   -0.763459
      4          6           0       -0.004329   -1.523756   -0.506608
      5          7           0       -0.835826   -2.574131   -0.265141
      6          7           0       -2.050168   -2.122142   -0.107816
      7          6           0       -0.737748   -0.357550   -0.491792
      8          7           0       -2.004367   -0.772613   -0.224075
      9          6           0       -3.185503    0.009039   -0.082332
     10          6           0       -3.083899    1.359934    0.256274
     11          6           0       -4.246123    2.119200    0.381703
     12          6           0       -5.496046    1.531869    0.182426
     13          6           0       -5.582724    0.178233   -0.145658
     14          6           0       -4.430009   -0.591341   -0.286231
     15          6           0        2.755870    0.489800    0.082853
     16          6           0        2.431149    1.418494    1.070893
     17          6           0        2.660074    2.771934    0.823321
     18          6           0        3.206742    3.176025   -0.395038
     19          6           0        3.531058    2.231666   -1.373943
     20          6           0        3.309382    0.877081   -1.141039
     21          8           0        3.704767   -2.006198    0.072644
     22          1           0        1.594962   -2.643291   -1.072497
     23          1           0       -0.477478    0.671868   -0.663621
     24          1           0       -2.113678    1.807819    0.434221
     25          1           0       -4.169900    3.168463    0.643417
     26          1           0       -6.397963    2.125208    0.285882
     27          1           0       -6.550367   -0.283241   -0.301910
     28          1           0       -4.476372   -1.639730   -0.548734
     29          1           0        2.012980    1.071968    2.007997
     30          1           0        2.413373    3.506583    1.581785
     31          1           0        3.383535    4.228053   -0.584454
     32          1           0        3.957661    2.550362   -2.318002
     33          1           0        3.556731    0.134740   -1.889787
 ---------------------------------------------------------------------

 SCF Done:  E(RB3LYP) =  -1308.27150056     A.U. after   11 cycles

 The electronic state is 1-A.
 Alpha  occ. eigenvalues --  -89.12549 -19.15858 -19.15696 -14.44827 -14.40432
 Alpha  occ. eigenvalues --  -14.38563 -14.36992 -10.26550 -10.25518 -10.24765
 Alpha  occ. eigenvalues --  -10.23791 -10.22049 -10.21905 -10.21377 -10.21243
 Alpha  occ. eigenvalues --  -10.21219 -10.21188 -10.20740 -10.20718 -10.20560
 Alpha  occ. eigenvalues --  -10.20331  -8.15121  -6.11629  -6.11537  -6.11400
 Alpha  occ. eigenvalues --   -1.12469  -1.11438  -1.01483  -0.96088  -0.93085
 Alpha  occ. eigenvalues --   -0.88230  -0.86479  -0.81335  -0.78666  -0.77062
 Alpha  occ. eigenvalues --   -0.76775  -0.76267  -0.69368  -0.66770  -0.65093
 Alpha  occ. eigenvalues --   -0.63021  -0.61624  -0.60779  -0.59929  -0.57213
 Alpha  occ. eigenvalues --   -0.55354  -0.52424  -0.52318  -0.50344  -0.49423
 Alpha  occ. eigenvalues --   -0.49020  -0.48500  -0.47796  -0.46331  -0.45883
 Alpha  occ. eigenvalues --   -0.45297  -0.44623  -0.44543  -0.43900  -0.39620
 Alpha  occ. eigenvalues --   -0.39109  -0.38682  -0.37750  -0.37135  -0.36843
 Alpha  occ. eigenvalues --   -0.36419  -0.35082  -0.34733  -0.33076  -0.32573
 Alpha  occ. eigenvalues --   -0.31997  -0.31069  -0.28884  -0.27976  -0.27438
 Alpha  occ. eigenvalues --   -0.26848  -0.26400  -0.24244
 Alpha virt. eigenvalues --   -0.04962  -0.04389  -0.02323  -0.01887   0.01199
 Alpha virt. eigenvalues --    0.01934   0.05968   0.07895   0.08183   0.08845
 Alpha virt. eigenvalues --    0.09875   0.10821   0.11742   0.12554   0.13642

 Mulliken charges:
               1
     1  O   -0.531816
     2  S    1.200217
     3  N   -0.800572
     4  C    0.402650
     5  N   -0.335208
     6  N   -0.082697
     7  C    0.034471
     8  N   -0.363396
     9  C    0.329813
    10  C   -0.166691
    11  C   -0.148189
    12  C   -0.124784
    13  C   -0.147687
    14  C   -0.150490
    15  C   -0.156596
    16  C   -0.148203
    17  C   -0.132296
    18  C   -0.121531
    19  C   -0.133929
    20  C   -0.127949
    21  O   -0.554350
    22  H    0.391063
    23  H    0.206764
    24  H    0.155751
    25  H    0.157556
    26  H    0.153716
    27  H    0.157595
    28  H    0.176342
    29  H    0.188347
    30  H    0.164015
    31  H    0.163368
    32  H    0.164549
    33  H    0.180167
 Sum of Mulliken charges =   0.00000

 Dipole moment (field-independent basis, Debye):
    X=             -2.8596    Y=              8.8544    Z=             -3.1134  Tot=              9.8118
 Quadrupole moment (field-independent basis, Debye-Ang):
   XX=           -116.8733   YY=           -122.7556   ZZ=           -127.1418
   XY=              7.1983   XZ=             -8.0307   YZ=              7.2248

 Normal termination of Gaussian 09 at Thu Aug  6 21:12:52 2020.
