 Gaussian 09, Revision D.01,

 -----------------
 #p b3lyp/6-31G(d)
 -----------------

 ----------------
 SM46.n.2.pdb.xyz
 ----------------
 Symbolic Z-matrix:
 Charge =  0 Multiplicity = 1

 SCF Done:  E(RB3LYP) =  -1211.16530819     A.U. after   15 cycles
 Normal termination of Gaussian 09 at Thu Aug  6 21:08:54 2020.
 Gaussian 09:  AM64L-G09RevD.01 24-Apr-2013

 ----------------------------------------------------------------------
 #p b3lyp/6-31G(d) scrf=(iefpcm,read,solvent=n-Octanol) geom=allcheck g
 uess=read
 ----------------------------------------------------------------------

 Structure from the checkpoint file:  "SM46.n.2.pdb.xyz.mst.n.o.chk"
 ----------------
 SM46.n.2.pdb.xyz
 ----------------
 Charge =  0 Multiplicity = 1

                         Standard orientation:
 ---------------------------------------------------------------------
 Center     Atomic      Atomic             Coordinates (Angstroms)
 Number     Number       Type             X           Y           Z
 ---------------------------------------------------------------------
      1          8           0        2.331744   -0.412791    1.794175
      2         16           0        2.942414   -0.660522    0.489503
      3          7           0        1.719723   -0.901758   -0.696732
      4          6           0        0.446494   -0.338643   -0.525337
      5          7           0        0.247910    1.005735   -0.622965
      6          7           0       -1.020900    1.260853   -0.461522
      7          6           0       -0.767725   -0.949472   -0.297502
      8          7           0       -1.656808    0.078380   -0.280657
      9          6           0       -3.068823    0.031786   -0.100369
     10          6           0       -3.755300   -1.161462   -0.331854
     11          6           0       -5.135092   -1.199261   -0.142063
     12          6           0       -5.823778   -0.054737    0.262267
     13          6           0       -5.124664    1.133885    0.481068
     14          6           0       -3.743918    1.184803    0.308098
     15          7           0        3.764741    0.714584    0.066498
     16          6           0        4.363948    0.698245   -1.271395
     17          6           0        3.179734    2.002798    0.472129
     18          8           0        3.832530   -1.799497    0.265478
     19          1           0        1.723485   -1.880255   -0.969719
     20          1           0       -1.049249   -1.976011   -0.143030
     21          1           0       -3.222325   -2.042510   -0.665448
     22          1           0       -5.671075   -2.125207   -0.319600
     23          1           0       -6.898332   -0.088936    0.404351
     24          1           0       -5.652883    2.025547    0.797553
     25          1           0       -3.183273    2.094228    0.481071
     26          1           0        4.828787   -0.270891   -1.443964
     27          1           0        5.136968    1.468805   -1.297619
     28          1           0        3.626586    0.899502   -2.056150
     29          1           0        2.888481    1.946243    1.518639
     30          1           0        2.309282    2.269297   -0.136717
     31          1           0        3.962805    2.754633    0.358759
 ---------------------------------------------------------------------

 SCF Done:  E(RB3LYP) =  -1211.18610366     A.U. after   11 cycles

 The electronic state is 1-A.
 Alpha  occ. eigenvalues --  -89.13635 -19.15585 -19.15338 -14.44695 -14.40334
 Alpha  occ. eigenvalues --  -14.38229 -14.37837 -14.36894 -10.26492 -10.25430
 Alpha  occ. eigenvalues --  -10.24569 -10.22133 -10.21474 -10.21080 -10.20642
 Alpha  occ. eigenvalues --  -10.20615 -10.20482 -10.20242  -8.15886  -6.12373
 Alpha  occ. eigenvalues --   -6.12299  -6.12284  -1.13138  -1.11380  -1.01555
 Alpha  occ. eigenvalues --   -0.95756  -0.94385  -0.92758  -0.86384  -0.81027
 Alpha  occ. eigenvalues --   -0.76721  -0.76217  -0.72617  -0.71441  -0.67037
 Alpha  occ. eigenvalues --   -0.65588  -0.62031  -0.61132  -0.58281  -0.56626
 Alpha  occ. eigenvalues --   -0.53868  -0.53193  -0.51214  -0.50055  -0.49199
 Alpha  occ. eigenvalues --   -0.48589  -0.48212  -0.46267  -0.45786  -0.44833
 Alpha  occ. eigenvalues --   -0.44281  -0.43797  -0.41691  -0.40951  -0.39130
 Alpha  occ. eigenvalues --   -0.38788  -0.37753  -0.36500  -0.35806  -0.35660
 Alpha  occ. eigenvalues --   -0.34799  -0.33758  -0.32610  -0.31580  -0.31021
 Alpha  occ. eigenvalues --   -0.28726  -0.26810  -0.26518  -0.26008  -0.23974
 Alpha virt. eigenvalues --   -0.04667  -0.01782   0.01340   0.02226   0.05961
 Alpha virt. eigenvalues --    0.08230   0.08422   0.09104   0.09709   0.11034
 Alpha virt. eigenvalues --    0.11715   0.12809   0.14169   0.14516   0.15028

 Mulliken charges:
               1
     1  O   -0.540984
     2  S    1.326927
     3  N   -0.809323
     4  C    0.414879
     5  N   -0.330170
     6  N   -0.079024
     7  C    0.021297
     8  N   -0.367065
     9  C    0.331870
    10  C   -0.169728
    11  C   -0.149309
    12  C   -0.125172
    13  C   -0.148108
    14  C   -0.151847
    15  N   -0.502718
    16  C   -0.327323
    17  C   -0.337845
    18  O   -0.567876
    19  H    0.390169
    20  H    0.213203
    21  H    0.161959
    22  H    0.157029
    23  H    0.152954
    24  H    0.156770
    25  H    0.176234
    26  H    0.194312
    27  H    0.179388
    28  H    0.172232
    29  H    0.192814
    30  H    0.193220
    31  H    0.171234
 Sum of Mulliken charges =   0.00000

 Dipole moment (field-independent basis, Debye):
    X=             -5.1189    Y=             -0.9955    Z=             -2.8698  Tot=              5.9523
 Quadrupole moment (field-independent basis, Debye-Ang):
   XX=            -95.2008   YY=           -103.9757   ZZ=           -117.0396
   XY=             16.0126   XZ=            -12.1398   YZ=              7.3796

 Normal termination of Gaussian 09 at Thu Aug  6 21:12:04 2020.
