 Gaussian 09, Revision D.01,

 -----------------
 #p b3lyp/6-31G(d)
 -----------------

 ----------------
 SM46.n.3.pdb.xyz
 ----------------
 Symbolic Z-matrix:
 Charge =  0 Multiplicity = 1

 SCF Done:  E(RB3LYP) =  -1211.15445453     A.U. after   16 cycles
 Normal termination of Gaussian 09 at Thu Aug  6 21:13:13 2020.
 Gaussian 09:  AM64L-G09RevD.01 24-Apr-2013

 ----------------------------------------------------------------------
 #p b3lyp/6-31G(d) scrf=(iefpcm,read,solvent=Water) geom=allcheck guess
 =read
 ----------------------------------------------------------------------

 Structure from the checkpoint file:  "SM46.n.3.pdb.xyz.mst.n.w.chk"
 ----------------
 SM46.n.3.pdb.xyz
 ----------------
 Charge =  0 Multiplicity = 1

                         Standard orientation:
 ---------------------------------------------------------------------
 Center     Atomic      Atomic             Coordinates (Angstroms)
 Number     Number       Type             X           Y           Z
 ---------------------------------------------------------------------
      1          8           0       -4.321656   -0.207544   -1.002367
      2         16           0       -3.169555   -0.337045   -0.109653
      3          7           0       -1.861458   -0.515680   -1.188970
      4          6           0       -0.546092   -0.675577   -0.717941
      5          7           0       -0.125761   -1.836354   -0.143095
      6          7           0        1.145195   -1.728387    0.143029
      7          6           0        0.522788    0.192383   -0.801614
      8          7           0        1.555654   -0.503372   -0.265002
      9          6           0        2.913802   -0.099309   -0.108083
     10          6           0        3.443716    0.879449   -0.951999
     11          6           0        4.770943    1.271838   -0.785459
     12          6           0        5.562539    0.684489    0.202630
     13          6           0        5.020267   -0.298800    1.033139
     14          6           0        3.692356   -0.691849    0.887814
     15          7           0       -3.096159    1.074108    0.777311
     16          6           0       -2.177546    1.122303    1.921600
     17          6           0       -3.205522    2.325889    0.017782
     18          8           0       -3.069751   -1.438421    0.846223
     19          1           0       -1.949223    0.154615   -1.953848
     20          1           0        0.615780    1.198520   -1.171163
     21          1           0        2.832272    1.318074   -1.731264
     22          1           0        5.185448    2.031989   -1.439047
     23          1           0        6.596012    0.989624    0.324599
     24          1           0        5.627738   -0.756202    1.804810
     25          1           0        3.255145   -1.442468    1.532481
     26          1           0       -2.165346    0.153772    2.417698
     27          1           0       -2.561429    1.870881    2.618101
     28          1           0       -1.160434    1.401614    1.627400
     29          1           0       -3.961716    2.214264   -0.756759
     30          1           0       -2.250817    2.623404   -0.432847
     31          1           0       -3.525103    3.105246    0.713308
 ---------------------------------------------------------------------

 SCF Done:  E(RB3LYP) =  -1211.18457180     A.U. after   12 cycles

 The electronic state is 1-A.
 Alpha  occ. eigenvalues --  -89.14278 -19.16058 -19.15922 -14.44884 -14.40648
 Alpha  occ. eigenvalues --  -14.38744 -14.38438 -14.37250 -10.26736 -10.25266
 Alpha  occ. eigenvalues --  -10.24714 -10.22418 -10.22250 -10.20828 -10.20517
 Alpha  occ. eigenvalues --  -10.20324 -10.20234 -10.20011  -8.16501  -6.12995
 Alpha  occ. eigenvalues --   -6.12923  -6.12892  -1.13713  -1.11562  -1.02139
 Alpha  occ. eigenvalues --   -0.96006  -0.94731  -0.93043  -0.86266  -0.81265
 Alpha  occ. eigenvalues --   -0.76592  -0.76062  -0.73053  -0.71611  -0.66944
 Alpha  occ. eigenvalues --   -0.65828  -0.62430  -0.61078  -0.58482  -0.56594
 Alpha  occ. eigenvalues --   -0.54807  -0.52970  -0.51647  -0.49996  -0.49168
 Alpha  occ. eigenvalues --   -0.48842  -0.48387  -0.46849  -0.45624  -0.44819
 Alpha  occ. eigenvalues --   -0.44566  -0.43501  -0.42083  -0.41096  -0.39250
 Alpha  occ. eigenvalues --   -0.39059  -0.37473  -0.36701  -0.36197  -0.35856
 Alpha  occ. eigenvalues --   -0.34871  -0.33579  -0.33136  -0.32350  -0.31828
 Alpha  occ. eigenvalues --   -0.29200  -0.28285  -0.26591  -0.25867  -0.23857
 Alpha virt. eigenvalues --   -0.04659  -0.01596   0.00831   0.01660   0.05677
 Alpha virt. eigenvalues --    0.08028   0.08617   0.08944   0.09617   0.10505
 Alpha virt. eigenvalues --    0.11591   0.12922   0.14155   0.14701   0.15056

 Mulliken charges:
               1
     1  O   -0.574426
     2  S    1.292135
     3  N   -0.779125
     4  C    0.379617
     5  N   -0.345776
     6  N   -0.104712
     7  C    0.038387
     8  N   -0.353560
     9  C    0.328991
    10  C   -0.170690
    11  C   -0.156371
    12  C   -0.131696
    13  C   -0.154857
    14  C   -0.155222
    15  N   -0.507273
    16  C   -0.330325
    17  C   -0.334232
    18  O   -0.565585
    19  H    0.422280
    20  H    0.229680
    21  H    0.175133
    22  H    0.165515
    23  H    0.161105
    24  H    0.164881
    25  H    0.175660
    26  H    0.201417
    27  H    0.190307
    28  H    0.172442
    29  H    0.201212
    30  H    0.170860
    31  H    0.194228
 Sum of Mulliken charges =   0.00000

 Dipole moment (field-independent basis, Debye):
    X=              7.7534    Y=             10.8975    Z=             -1.4270  Tot=             13.4501
 Quadrupole moment (field-independent basis, Debye-Ang):
   XX=           -117.2676   YY=           -115.4262   ZZ=           -102.9938
   XY=            -12.2131   XZ=             -1.1044   YZ=             -2.9616

 Normal termination of Gaussian 09 at Thu Aug  6 21:16:20 2020.
