 Gaussian 09, Revision D.01,

 -----------------
 #p b3lyp/6-31G(d)
 -----------------

 ----------------
 SM46.n.2.pdb.xyz
 ----------------
 Symbolic Z-matrix:
 Charge =  0 Multiplicity = 1

 SCF Done:  E(RB3LYP) =  -1211.15891192     A.U. after   15 cycles
 Normal termination of Gaussian 09 at Thu Aug  6 21:08:44 2020.
 Gaussian 09:  AM64L-G09RevD.01 24-Apr-2013

 ----------------------------------------------------------------------
 #p b3lyp/6-31G(d) scrf=(iefpcm,read,solvent=Water) geom=allcheck guess
 =read
 ----------------------------------------------------------------------

 Structure from the checkpoint file:  "SM46.n.2.pdb.xyz.mst.n.w.chk"
 ----------------
 SM46.n.2.pdb.xyz
 ----------------
 Charge =  0 Multiplicity = 1

                         Standard orientation:
 ---------------------------------------------------------------------
 Center     Atomic      Atomic             Coordinates (Angstroms)
 Number     Number       Type             X           Y           Z
 ---------------------------------------------------------------------
      1          8           0       -2.314496   -0.876746    1.438460
      2         16           0       -2.724521    0.265846    0.625184
      3          7           0       -1.708148    0.249521   -0.756928
      4          6           0       -0.365097   -0.142630   -0.573819
      5          7           0        0.006423   -1.451718   -0.642708
      6          7           0        1.297921   -1.532829   -0.476797
      7          6           0        0.759751    0.626215   -0.357434
      8          7           0        1.773158   -0.272336   -0.311809
      9          6           0        3.165362   -0.036234   -0.122678
     10          6           0        3.712911    1.193137   -0.491709
     11          6           0        5.074340    1.417787   -0.292845
     12          6           0        5.881060    0.419480    0.256676
     13          6           0        5.320393   -0.808296    0.612923
     14          6           0        3.959150   -1.042877    0.432344
     15          7           0       -4.248787   -0.034156    0.040315
     16          6           0       -4.908700    1.069025   -0.671729
     17          6           0       -4.440095   -1.356232   -0.574077
     18          8           0       -2.748000    1.609479    1.215620
     19          1           0       -1.797910    1.137752   -1.251610
     20          1           0        0.900544    1.685488   -0.228498
     21          1           0        3.087648    1.957878   -0.937933
     22          1           0        5.502502    2.372213   -0.577725
     23          1           0        6.940907    0.597312    0.405884
     24          1           0        5.939692   -1.586978    1.043816
     25          1           0        3.508626   -1.983969    0.717584
     26          1           0       -4.734511    2.000916   -0.138431
     27          1           0       -5.979910    0.858898   -0.677575
     28          1           0       -4.563309    1.161527   -1.708456
     29          1           0       -3.974135   -2.115647    0.051775
     30          1           0       -4.022085   -1.402906   -1.586666
     31          1           0       -5.514168   -1.543506   -0.618178
 ---------------------------------------------------------------------

 SCF Done:  E(RB3LYP) =  -1211.18521695     A.U. after   11 cycles

 The electronic state is 1-A.
 Alpha  occ. eigenvalues --  -89.14097 -19.16071 -19.16053 -14.44629 -14.40429
 Alpha  occ. eigenvalues --  -14.38363 -14.38237 -14.37063 -10.26335 -10.25170
 Alpha  occ. eigenvalues --  -10.24510 -10.22274 -10.22081 -10.20757 -10.20473
 Alpha  occ. eigenvalues --  -10.20279 -10.20197 -10.19973  -8.16380  -6.12840
 Alpha  occ. eigenvalues --   -6.12801  -6.12784  -1.13630  -1.11314  -1.01961
 Alpha  occ. eigenvalues --   -0.95738  -0.94855  -0.92767  -0.86192  -0.80955
 Alpha  occ. eigenvalues --   -0.76498  -0.75991  -0.72896  -0.71757  -0.66723
 Alpha  occ. eigenvalues --   -0.65174  -0.61839  -0.60855  -0.58496  -0.56345
 Alpha  occ. eigenvalues --   -0.54857  -0.52508  -0.51609  -0.49872  -0.49123
 Alpha  occ. eigenvalues --   -0.48632  -0.48188  -0.46605  -0.45500  -0.44858
 Alpha  occ. eigenvalues --   -0.44488  -0.43431  -0.41860  -0.40933  -0.39063
 Alpha  occ. eigenvalues --   -0.38849  -0.37465  -0.36762  -0.36194  -0.35401
 Alpha  occ. eigenvalues --   -0.35114  -0.33618  -0.33378  -0.32069  -0.30996
 Alpha  occ. eigenvalues --   -0.29036  -0.26769  -0.26662  -0.26496  -0.24411
 Alpha virt. eigenvalues --   -0.04445  -0.01544   0.01054   0.01848   0.06175
 Alpha virt. eigenvalues --    0.07974   0.08755   0.08967   0.09650   0.10895
 Alpha virt. eigenvalues --    0.11652   0.13223   0.14108   0.14920   0.15079

 Mulliken charges:
               1
     1  O   -0.572357
     2  S    1.311696
     3  N   -0.801093
     4  C    0.375551
     5  N   -0.346439
     6  N   -0.109308
     7  C    0.054710
     8  N   -0.352719
     9  C    0.327327
    10  C   -0.170193
    11  C   -0.156438
    12  C   -0.132182
    13  C   -0.155017
    14  C   -0.154989
    15  N   -0.511722
    16  C   -0.334029
    17  C   -0.326464
    18  O   -0.559324
    19  H    0.417868
    20  H    0.227933
    21  H    0.174592
    22  H    0.165188
    23  H    0.160686
    24  H    0.164381
    25  H    0.174958
    26  H    0.200200
    27  H    0.192093
    28  H    0.174329
    29  H    0.196873
    30  H    0.174329
    31  H    0.189561
 Sum of Mulliken charges =   0.00000

 Dipole moment (field-independent basis, Debye):
    X=              1.6848    Y=              5.5444    Z=             -4.9902  Tot=              7.6473
 Quadrupole moment (field-independent basis, Debye-Ang):
   XX=            -69.9214   YY=           -111.5669   ZZ=           -117.0079
   XY=              4.9530   XZ=             19.0046   YZ=             -9.0815

 Normal termination of Gaussian 09 at Thu Aug  6 21:11:33 2020.
