 Gaussian 09, Revision D.01,

 -----------------
 #p b3lyp/6-31G(d)
 -----------------

 ----------------
 SM46.n.7.pdb.xyz
 ----------------
 Symbolic Z-matrix:
 Charge =  0 Multiplicity = 1

 SCF Done:  E(RB3LYP) =  -1211.16737475     A.U. after   15 cycles
 Normal termination of Gaussian 09 at Thu Aug  6 21:17:35 2020.
 Gaussian 09:  AM64L-G09RevD.01 24-Apr-2013

 ----------------------------------------------------------------------
 #p b3lyp/6-31G(d) scrf=(iefpcm,read,solvent=n-Octanol) geom=allcheck g
 uess=read
 ----------------------------------------------------------------------

 Structure from the checkpoint file:  "SM46.n.7.pdb.xyz.mst.n.o.chk"
 ----------------
 SM46.n.7.pdb.xyz
 ----------------
 Charge =  0 Multiplicity = 1

                         Standard orientation:
 ---------------------------------------------------------------------
 Center     Atomic      Atomic             Coordinates (Angstroms)
 Number     Number       Type             X           Y           Z
 ---------------------------------------------------------------------
      1          8           0        2.917522    0.529013    1.783016
      2         16           0        2.630480   -0.138814    0.511831
      3          7           0        1.750052    0.839406   -0.556109
      4          6           0        0.351696    0.902859   -0.422504
      5          7           0       -0.288507    2.095511   -0.543721
      6          7           0       -1.577699    1.891644   -0.448484
      7          6           0       -0.578027   -0.095660   -0.233676
      8          7           0       -1.767781    0.569562   -0.247326
      9          6           0       -3.079204    0.039881   -0.082607
     10          6           0       -3.302789   -1.325944   -0.271303
     11          6           0       -4.587692   -1.836715   -0.097749
     12          6           0       -5.641710   -0.990256    0.248537
     13          6           0       -5.405315    0.373604    0.424040
     14          6           0       -4.125154    0.897706    0.266635
     15          7           0        4.055182   -0.169459   -0.354912
     16          6           0        5.276311   -0.329642    0.447149
     17          6           0        4.020186   -0.974590   -1.583759
     18          8           0        1.912725   -1.417903    0.532138
     19          1           0        2.173464    1.761600   -0.647816
     20          1           0       -0.473763   -1.150563   -0.064404
     21          1           0       -2.487490   -1.978637   -0.559890
     22          1           0       -4.762044   -2.896171   -0.242218
     23          1           0       -6.640877   -1.391328    0.378475
     24          1           0       -6.218869    1.037006    0.695444
     25          1           0       -3.921661    1.950423    0.407886
     26          1           0        5.225516    0.324135    1.314850
     27          1           0        6.117675   -0.030028   -0.179960
     28          1           0        5.429076   -1.365382    0.774359
     29          1           0        3.112332   -0.745279   -2.139234
     30          1           0        4.064597   -2.049779   -1.376119
     31          1           0        4.883842   -0.687958   -2.186607
 ---------------------------------------------------------------------

 SCF Done:  E(RB3LYP) =  -1211.18647666     A.U. after   11 cycles

 The electronic state is 1-A.
 Alpha  occ. eigenvalues --  -89.14345 -19.15949 -19.15875 -14.44386 -14.39979
 Alpha  occ. eigenvalues --  -14.39099 -14.38471 -14.36618 -10.26588 -10.25240
 Alpha  occ. eigenvalues --  -10.23832 -10.22626 -10.22597 -10.20895 -10.20464
 Alpha  occ. eigenvalues --  -10.20453 -10.20328 -10.20089  -8.16592  -6.13084
 Alpha  occ. eigenvalues --   -6.13016  -6.12971  -1.13623  -1.11086  -1.01698
 Alpha  occ. eigenvalues --   -0.96545  -0.94986  -0.92751  -0.86172  -0.81112
 Alpha  occ. eigenvalues --   -0.76619  -0.76154  -0.73323  -0.72174  -0.66910
 Alpha  occ. eigenvalues --   -0.64920  -0.61773  -0.60557  -0.59515  -0.56799
 Alpha  occ. eigenvalues --   -0.54664  -0.52598  -0.51348  -0.50141  -0.48998
 Alpha  occ. eigenvalues --   -0.48650  -0.47665  -0.46694  -0.45812  -0.44969
 Alpha  occ. eigenvalues --   -0.44386  -0.43580  -0.42227  -0.41450  -0.39879
 Alpha  occ. eigenvalues --   -0.39197  -0.37517  -0.37459  -0.36161  -0.36055
 Alpha  occ. eigenvalues --   -0.34901  -0.34392  -0.33116  -0.31904  -0.31088
 Alpha  occ. eigenvalues --   -0.28732  -0.26686  -0.26635  -0.25860  -0.23386
 Alpha virt. eigenvalues --   -0.04456  -0.01591   0.01910   0.03257   0.05741
 Alpha virt. eigenvalues --    0.07342   0.08084   0.08592   0.09974   0.10543
 Alpha virt. eigenvalues --    0.10948   0.12243   0.13540   0.14718   0.15213

 Mulliken charges:
               1
     1  O   -0.522856
     2  S    1.289737
     3  N   -0.777650
     4  C    0.403760
     5  N   -0.357981
     6  N   -0.087919
     7  C    0.040005
     8  N   -0.369937
     9  C    0.332190
    10  C   -0.170289
    11  C   -0.149471
    12  C   -0.125735
    13  C   -0.148258
    14  C   -0.152584
    15  N   -0.522899
    16  C   -0.324720
    17  C   -0.320323
    18  O   -0.550881
    19  H    0.390035
    20  H    0.218365
    21  H    0.162873
    22  H    0.156239
    23  H    0.151770
    24  H    0.155382
    25  H    0.175182
    26  H    0.204220
    27  H    0.182479
    28  H    0.168123
    29  H    0.195843
    30  H    0.172929
    31  H    0.182368
 Sum of Mulliken charges =   0.00000

 Dipole moment (field-independent basis, Debye):
    X=              0.9392    Y=             -3.3042    Z=             -2.6637  Tot=              4.3468
 Quadrupole moment (field-independent basis, Debye-Ang):
   XX=            -70.1210   YY=           -114.0999   ZZ=           -116.7913
   XY=              4.8293   XZ=            -12.6923   YZ=              3.7159

 Normal termination of Gaussian 09 at Thu Aug  6 21:20:22 2020.
