 Gaussian 09, Revision D.01,

 -----------------
 #p b3lyp/6-31G(d)
 -----------------

 ----------------
 SM46.n.1.pdb.xyz
 ----------------
 Symbolic Z-matrix:
 Charge =  0 Multiplicity = 1

 SCF Done:  E(RB3LYP) =  -1211.16677152     A.U. after   15 cycles
 Normal termination of Gaussian 09 at Thu Aug  6 21:15:13 2020.
 Gaussian 09:  AM64L-G09RevD.01 24-Apr-2013

 ----------------------------------------------------------------------
 #p b3lyp/6-31G(d) scrf=(iefpcm,read,solvent=n-Octanol) geom=allcheck g
 uess=read
 ----------------------------------------------------------------------

 Structure from the checkpoint file:  "SM46.n.1.pdb.xyz.mst.n.o.chk"
 ----------------
 SM46.n.1.pdb.xyz
 ----------------
 Charge =  0 Multiplicity = 1

                         Standard orientation:
 ---------------------------------------------------------------------
 Center     Atomic      Atomic             Coordinates (Angstroms)
 Number     Number       Type             X           Y           Z
 ---------------------------------------------------------------------
      1          8           0       -2.430809   -0.080648   -1.776528
      2         16           0       -2.927995   -0.263193   -0.413296
      3          7           0       -1.898575   -1.223792    0.534276
      4          6           0       -0.512467   -1.192880    0.308881
      5          7           0        0.177643   -2.331473    0.031517
      6          7           0        1.446685   -2.037901   -0.077113
      7          6           0        0.366355   -0.135143    0.370871
      8          7           0        1.574357   -0.704196    0.112374
      9          6           0        2.850434   -0.078672    0.034471
     10          6           0        2.934104    1.295875   -0.197990
     11          6           0        4.187550    1.900880   -0.262009
     12          6           0        5.346983    1.138776   -0.106203
     13          6           0        5.247710   -0.235390    0.117018
     14          6           0        4.002801   -0.851883    0.194826
     15          7           0       -2.700531    1.205934    0.370730
     16          6           0       -3.017766    2.384114   -0.450079
     17          6           0       -3.255558    1.258879    1.731734
     18          8           0       -4.255576   -0.847202   -0.193781
     19          1           0       -2.272149   -2.169891    0.583417
     20          1           0        0.231662    0.910891    0.579198
     21          1           0        2.033811    1.881051   -0.342117
     22          1           0        4.254423    2.967310   -0.441929
     23          1           0        6.320192    1.613156   -0.160168
     24          1           0        6.144306   -0.833066    0.239167
     25          1           0        3.906128   -1.914234    0.375345
     26          1           0       -2.550428    2.279684   -1.427356
     27          1           0       -2.597583    3.254347    0.057141
     28          1           0       -4.096689    2.534613   -0.572085
     29          1           0       -2.931731    0.379010    2.286308
     30          1           0       -4.349788    1.313361    1.732477
     31          1           0       -2.851091    2.150313    2.214205
 ---------------------------------------------------------------------

 SCF Done:  E(RB3LYP) =  -1211.18689224     A.U. after   11 cycles

 The electronic state is 1-A.
 Alpha  occ. eigenvalues --  -89.14071 -19.15919 -19.15807 -14.44637 -14.40216
 Alpha  occ. eigenvalues --  -14.38998 -14.38425 -14.36838 -10.26576 -10.25398
 Alpha  occ. eigenvalues --  -10.24336 -10.22578 -10.22527 -10.21087 -10.20611
 Alpha  occ. eigenvalues --  -10.20607 -10.20461 -10.20231  -8.16351  -6.12842
 Alpha  occ. eigenvalues --   -6.12767  -6.12727  -1.13458  -1.11317  -1.01671
 Alpha  occ. eigenvalues --   -0.96473  -0.94831  -0.92922  -0.86355  -0.81200
 Alpha  occ. eigenvalues --   -0.76748  -0.76267  -0.73263  -0.71947  -0.66859
 Alpha  occ. eigenvalues --   -0.65598  -0.61761  -0.60710  -0.59562  -0.57000
 Alpha  occ. eigenvalues --   -0.54452  -0.52365  -0.51679  -0.50064  -0.49332
 Alpha  occ. eigenvalues --   -0.48817  -0.48032  -0.46702  -0.45686  -0.45087
 Alpha  occ. eigenvalues --   -0.44429  -0.43779  -0.42249  -0.41445  -0.39568
 Alpha  occ. eigenvalues --   -0.39139  -0.37678  -0.37348  -0.36399  -0.35657
 Alpha  occ. eigenvalues --   -0.34933  -0.34529  -0.32961  -0.32021  -0.31015
 Alpha  occ. eigenvalues --   -0.28875  -0.26956  -0.26743  -0.26072  -0.23829
 Alpha virt. eigenvalues --   -0.04626  -0.01750   0.01612   0.02446   0.05763
 Alpha virt. eigenvalues --    0.06691   0.08373   0.08935   0.09272   0.10713
 Alpha virt. eigenvalues --    0.11550   0.12724   0.13661   0.14561   0.15026

 Mulliken charges:
               1
     1  O   -0.535817
     2  S    1.316325
     3  N   -0.798976
     4  C    0.414063
     5  N   -0.347817
     6  N   -0.085553
     7  C    0.039923
     8  N   -0.366555
     9  C    0.330975
    10  C   -0.168257
    11  C   -0.149051
    12  C   -0.125549
    13  C   -0.147972
    14  C   -0.151294
    15  N   -0.529261
    16  C   -0.330452
    17  C   -0.326594
    18  O   -0.544061
    19  H    0.393712
    20  H    0.208189
    21  H    0.158841
    22  H    0.156919
    23  H    0.152819
    24  H    0.156574
    25  H    0.175641
    26  H    0.203178
    27  H    0.181285
    28  H    0.168867
    29  H    0.195933
    30  H    0.173229
    31  H    0.180734
 Sum of Mulliken charges =   0.00000

 Dipole moment (field-independent basis, Debye):
    X=              3.1478    Y=              6.4878    Z=              3.7295  Tot=              8.1185
 Quadrupole moment (field-independent basis, Debye-Ang):
   XX=           -103.0103   YY=           -105.7339   ZZ=           -115.6912
   XY=             -3.8665   XZ=             -8.5750   YZ=             -2.3740

 Normal termination of Gaussian 09 at Thu Aug  6 21:18:00 2020.
