 Gaussian 09, Revision D.01,

 -----------------
 #p b3lyp/6-31G(d)
 -----------------

 ----------------
 SM46.n.6.pdb.xyz
 ----------------
 Symbolic Z-matrix:
 Charge =  0 Multiplicity = 1

 SCF Done:  E(RB3LYP) =  -1211.16632791     A.U. after   15 cycles
 Normal termination of Gaussian 09 at Thu Aug  6 21:17:35 2020.
 Gaussian 09:  AM64L-G09RevD.01 24-Apr-2013

 ----------------------------------------------------------------------
 #p b3lyp/6-31G(d) scrf=(iefpcm,read,solvent=n-Octanol) geom=allcheck g
 uess=read
 ----------------------------------------------------------------------

 Structure from the checkpoint file:  "SM46.n.6.pdb.xyz.mst.n.o.chk"
 ----------------
 SM46.n.6.pdb.xyz
 ----------------
 Charge =  0 Multiplicity = 1

                         Standard orientation:
 ---------------------------------------------------------------------
 Center     Atomic      Atomic             Coordinates (Angstroms)
 Number     Number       Type             X           Y           Z
 ---------------------------------------------------------------------
      1          8           0        1.849236   -1.581903   -0.326849
      2         16           0        2.659304   -0.383383   -0.529554
      3          7           0        1.791121    0.865412    0.259654
      4          6           0        0.392511    0.926004    0.122696
      5          7           0       -0.221293    2.127022   -0.045740
      6          7           0       -1.517258    1.935308   -0.075333
      7          6           0       -0.559456   -0.065889    0.199014
      8          7           0       -1.735064    0.610996    0.063227
      9          6           0       -3.058244    0.087896    0.051136
     10          6           0       -3.264545   -1.266148   -0.219587
     11          6           0       -4.564100   -1.770374   -0.219242
     12          6           0       -5.647130   -0.929407    0.037471
     13          6           0       -5.425630    0.423906    0.297877
     14          6           0       -4.132898    0.940205    0.312115
     15          7           0        4.043666   -0.533876    0.365911
     16          6           0        5.102255    0.457817    0.149019
     17          6           0        3.873447   -0.972814    1.754998
     18          8           0        3.054863    0.040295   -1.872281
     19          1           0        2.214230    1.777286    0.086301
     20          1           0       -0.484024   -1.128732    0.325460
     21          1           0       -2.425134   -1.914512   -0.439539
     22          1           0       -4.725955   -2.822110   -0.428357
     23          1           0       -6.656723   -1.324704    0.032171
     24          1           0       -6.261853    1.084804    0.499344
     25          1           0       -3.942665    1.983725    0.520878
     26          1           0        5.168258    0.688959   -0.911970
     27          1           0        6.044073    0.011675    0.473705
     28          1           0        4.935240    1.377785    0.722847
     29          1           0        3.123309   -1.761233    1.791868
     30          1           0        3.575615   -0.148558    2.413502
     31          1           0        4.828517   -1.378609    2.092664
 ---------------------------------------------------------------------

 SCF Done:  E(RB3LYP) =  -1211.18587790     A.U. after   11 cycles

 The electronic state is 1-A.
 Alpha  occ. eigenvalues --  -89.14520 -19.16188 -19.16174 -14.44333 -14.39916
 Alpha  occ. eigenvalues --  -14.38871 -14.38642 -14.36531 -10.26521 -10.25199
 Alpha  occ. eigenvalues --  -10.23729 -10.22932 -10.22666 -10.20873 -10.20449
 Alpha  occ. eigenvalues --  -10.20436 -10.20328 -10.20074  -8.16745  -6.13232
 Alpha  occ. eigenvalues --   -6.13158  -6.13152  -1.13939  -1.11038  -1.02280
 Alpha  occ. eigenvalues --   -0.96250  -0.95203  -0.92587  -0.86148  -0.80928
 Alpha  occ. eigenvalues --   -0.76568  -0.76103  -0.73559  -0.72245  -0.66974
 Alpha  occ. eigenvalues --   -0.65197  -0.61853  -0.60475  -0.59508  -0.56725
 Alpha  occ. eigenvalues --   -0.54893  -0.52549  -0.51398  -0.50171  -0.49098
 Alpha  occ. eigenvalues --   -0.48843  -0.47620  -0.47173  -0.45612  -0.45076
 Alpha  occ. eigenvalues --   -0.44363  -0.43587  -0.42435  -0.41610  -0.39710
 Alpha  occ. eigenvalues --   -0.39486  -0.37493  -0.37415  -0.36478  -0.36157
 Alpha  occ. eigenvalues --   -0.34438  -0.34031  -0.33464  -0.32060  -0.31167
 Alpha  occ. eigenvalues --   -0.28791  -0.27163  -0.26607  -0.25798  -0.23248
 Alpha virt. eigenvalues --   -0.04380  -0.01593   0.01923   0.03087   0.05990
 Alpha virt. eigenvalues --    0.07196   0.08225   0.08589   0.09312   0.10177
 Alpha virt. eigenvalues --    0.11014   0.12165   0.13592   0.14701   0.15077

 Mulliken charges:
               1
     1  O   -0.562825
     2  S    1.320551
     3  N   -0.787366
     4  C    0.401549
     5  N   -0.360887
     6  N   -0.088971
     7  C    0.040799
     8  N   -0.369399
     9  C    0.331815
    10  C   -0.170299
    11  C   -0.149730
    12  C   -0.125873
    13  C   -0.148511
    14  C   -0.152523
    15  N   -0.504317
    16  C   -0.334769
    17  C   -0.324807
    18  O   -0.527605
    19  H    0.382437
    20  H    0.214885
    21  H    0.162665
    22  H    0.156269
    23  H    0.151630
    24  H    0.155159
    25  H    0.174270
    26  H    0.205732
    27  H    0.188057
    28  H    0.167249
    29  H    0.198838
    30  H    0.172158
    31  H    0.183821
 Sum of Mulliken charges =   0.00000

 Dipole moment (field-independent basis, Debye):
    X=              0.6832    Y=             -1.5704    Z=              4.1133  Tot=              4.4556
 Quadrupole moment (field-independent basis, Debye-Ang):
   XX=            -72.5781   YY=           -114.8416   ZZ=           -116.5307
   XY=             12.0596   XZ=             11.9272   YZ=             -0.4023

 Normal termination of Gaussian 09 at Thu Aug  6 21:21:04 2020.
