 Gaussian 09, Revision D.01,

 -----------------
 #p b3lyp/6-31G(d)
 -----------------

 ----------------
 SM46.n.9.pdb.xyz
 ----------------
 Symbolic Z-matrix:
 Charge =  0 Multiplicity = 1

 SCF Done:  E(RB3LYP) =  -1211.16673241     A.U. after   15 cycles
 Normal termination of Gaussian 09 at Thu Aug  6 21:17:20 2020.
 Gaussian 09:  AM64L-G09RevD.01 24-Apr-2013

 ----------------------------------------------------------------------
 #p b3lyp/6-31G(d) scrf=(iefpcm,read,solvent=n-Octanol) geom=allcheck g
 uess=read
 ----------------------------------------------------------------------

 Structure from the checkpoint file:  "SM46.n.9.pdb.xyz.mst.n.o.chk"
 ----------------
 SM46.n.9.pdb.xyz
 ----------------
 Charge =  0 Multiplicity = 1

                         Standard orientation:
 ---------------------------------------------------------------------
 Center     Atomic      Atomic             Coordinates (Angstroms)
 Number     Number       Type             X           Y           Z
 ---------------------------------------------------------------------
      1          8           0       -2.430984   -0.088679   -1.775134
      2         16           0       -2.928104   -0.264611   -0.411558
      3          7           0       -1.898973   -1.221435    0.539933
      4          6           0       -0.513082   -1.192447    0.313635
      5          7           0        0.175877   -2.331633    0.035895
      6          7           0        1.444936   -2.037602   -0.072983
      7          6           0        0.366010   -0.134526    0.375320
      8          7           0        1.573531   -0.704647    0.115408
      9          6           0        2.850009   -0.079157    0.036089
     10          6           0        2.932276    1.296841   -0.185508
     11          6           0        4.186179    1.901162   -0.250747
     12          6           0        5.345749    1.138274   -0.109328
     13          6           0        5.247291   -0.237527    0.103507
     14          6           0        4.001938   -0.854048    0.183714
     15          7           0       -2.698640    1.206891    0.365607
     16          6           0       -3.005777    2.382160   -0.463507
     17          6           0       -3.259260    1.269281    1.722337
     18          8           0       -4.255908   -0.846531   -0.189508
     19          1           0       -2.272608   -2.167873    0.593910
     20          1           0        0.232577    0.911112    0.583494
     21          1           0        2.031909    1.883546   -0.318561
     22          1           0        4.252633    2.970279   -0.422158
     23          1           0        6.318801    1.612366   -0.163839
     24          1           0        6.143837   -0.836298    0.216415
     25          1           0        3.906704   -1.918707    0.356026
     26          1           0       -2.536717    2.268513   -1.437856
     27          1           0       -2.582141    3.253145    0.040430
     28          1           0       -4.084198    2.538616   -0.589994
     29          1           0       -2.942846    0.391094    2.283158
     30          1           0       -4.354433    1.327973    1.717742
     31          1           0       -2.853835    2.160594    2.203207
 ---------------------------------------------------------------------

 SCF Done:  E(RB3LYP) =  -1211.18684412     A.U. after   11 cycles

 The electronic state is 1-A.
 Alpha  occ. eigenvalues --  -89.14072 -19.15917 -19.15812 -14.44647 -14.40212
 Alpha  occ. eigenvalues --  -14.38988 -14.38430 -14.36842 -10.26575 -10.25397
 Alpha  occ. eigenvalues --  -10.24334 -10.22587 -10.22531 -10.21084 -10.20612
 Alpha  occ. eigenvalues --  -10.20611 -10.20461 -10.20219  -8.16353  -6.12844
 Alpha  occ. eigenvalues --   -6.12769  -6.12729  -1.13486  -1.11333  -1.01693
 Alpha  occ. eigenvalues --   -0.96476  -0.94865  -0.92923  -0.86368  -0.81198
 Alpha  occ. eigenvalues --   -0.76766  -0.76264  -0.73280  -0.71963  -0.66861
 Alpha  occ. eigenvalues --   -0.65607  -0.61767  -0.60700  -0.59558  -0.56999
 Alpha  occ. eigenvalues --   -0.54469  -0.52372  -0.51690  -0.50067  -0.49341
 Alpha  occ. eigenvalues --   -0.48834  -0.48043  -0.46704  -0.45707  -0.45090
 Alpha  occ. eigenvalues --   -0.44430  -0.43774  -0.42253  -0.41444  -0.39576
 Alpha  occ. eigenvalues --   -0.39154  -0.37673  -0.37353  -0.36399  -0.35671
 Alpha  occ. eigenvalues --   -0.34942  -0.34530  -0.32965  -0.32025  -0.31022
 Alpha  occ. eigenvalues --   -0.28875  -0.26970  -0.26740  -0.26072  -0.23839
 Alpha virt. eigenvalues --   -0.04628  -0.01760   0.01639   0.02447   0.05774
 Alpha virt. eigenvalues --    0.06689   0.08355   0.08947   0.09271   0.10715
 Alpha virt. eigenvalues --    0.11566   0.12729   0.13677   0.14539   0.15056

 Mulliken charges:
               1
     1  O   -0.535693
     2  S    1.316212
     3  N   -0.798967
     4  C    0.413770
     5  N   -0.347761
     6  N   -0.085442
     7  C    0.040039
     8  N   -0.366701
     9  C    0.331762
    10  C   -0.168189
    11  C   -0.149379
    12  C   -0.125108
    13  C   -0.148133
    14  C   -0.151746
    15  N   -0.529058
    16  C   -0.330470
    17  C   -0.326503
    18  O   -0.543790
    19  H    0.393629
    20  H    0.207829
    21  H    0.158814
    22  H    0.156784
    23  H    0.152840
    24  H    0.156570
    25  H    0.175903
    26  H    0.203609
    27  H    0.181039
    28  H    0.168705
    29  H    0.195846
    30  H    0.172921
    31  H    0.180669
 Sum of Mulliken charges =   0.00000

 Dipole moment (field-independent basis, Debye):
    X=              3.1618    Y=              6.4990    Z=              3.7067  Tot=              8.1224
 Quadrupole moment (field-independent basis, Debye-Ang):
   XX=           -103.0190   YY=           -105.7163   ZZ=           -115.7085
   XY=             -3.9058   XZ=             -8.5602   YZ=             -2.3497

 Normal termination of Gaussian 09 at Thu Aug  6 21:20:05 2020.
