 Gaussian 09, Revision D.01,

 -----------------
 #p b3lyp/6-31G(d)
 -----------------

 ----------------
 SM46.n.5.pdb.xyz
 ----------------
 Symbolic Z-matrix:
 Charge =  0 Multiplicity = 1

 SCF Done:  E(RB3LYP) =  -1211.16517448     A.U. after   15 cycles
 Normal termination of Gaussian 09 at Thu Aug  6 21:15:46 2020.
 Gaussian 09:  AM64L-G09RevD.01 24-Apr-2013

 ----------------------------------------------------------------------
 #p b3lyp/6-31G(d) scrf=(iefpcm,read,solvent=Water) geom=allcheck guess
 =read
 ----------------------------------------------------------------------

 Structure from the checkpoint file:  "SM46.n.5.pdb.xyz.mst.n.w.chk"
 ----------------
 SM46.n.5.pdb.xyz
 ----------------
 Charge =  0 Multiplicity = 1

                         Standard orientation:
 ---------------------------------------------------------------------
 Center     Atomic      Atomic             Coordinates (Angstroms)
 Number     Number       Type             X           Y           Z
 ---------------------------------------------------------------------
      1          8           0       -3.767454   -1.337364   -1.161899
      2         16           0       -2.814216   -0.661661   -0.280624
      3          7           0       -1.735861    0.177966   -1.257471
      4          6           0       -0.423421    0.461994   -0.849673
      5          7           0       -0.010494    1.725461   -0.553944
      6          7           0        1.260625    1.694735   -0.250259
      7          6           0        0.646421   -0.398086   -0.717442
      8          7           0        1.667947    0.406766   -0.333002
      9          6           0        3.017011    0.052967   -0.039511
     10          6           0        3.316749   -1.246948    0.371360
     11          6           0        4.641694   -1.581379    0.649844
     12          6           0        5.651984   -0.624767    0.529980
     13          6           0        5.333923    0.673386    0.124226
     14          6           0        4.016631    1.018164   -0.170395
     15          7           0       -3.679323    0.560404    0.492805
     16          6           0       -4.971445    0.112329    1.043647
     17          6           0       -2.880508    1.344989    1.449996
     18          8           0       -1.997174   -1.465928    0.636547
     19          1           0       -2.194001    0.918042   -1.791036
     20          1           0        0.751769   -1.456644   -0.873800
     21          1           0        2.528984   -1.981794    0.485360
     22          1           0        4.878542   -2.589362    0.969274
     23          1           0        6.679578   -0.888814    0.751947
     24          1           0        6.113381    1.420463    0.024168
     25          1           0        3.755894    2.015832   -0.498596
     26          1           0       -5.527843   -0.422449    0.276196
     27          1           0       -5.526580    1.008764    1.327839
     28          1           0       -4.852689   -0.524921    1.927789
     29          1           0       -1.974239    1.709092    0.965257
     30          1           0       -2.616187    0.768353    2.344674
     31          1           0       -3.486620    2.203136    1.744647
 ---------------------------------------------------------------------

 SCF Done:  E(RB3LYP) =  -1211.18551976     A.U. after   11 cycles

 The electronic state is 1-A.
 Alpha  occ. eigenvalues --  -89.14238 -19.16077 -19.15907 -14.44859 -14.40626
 Alpha  occ. eigenvalues --  -14.38695 -14.38063 -14.37412 -10.26696 -10.25221
 Alpha  occ. eigenvalues --  -10.24582 -10.21989 -10.21945 -10.20804 -10.20493
 Alpha  occ. eigenvalues --  -10.20302 -10.20234 -10.19998  -8.16491  -6.12973
 Alpha  occ. eigenvalues --   -6.12915  -6.12881  -1.13577  -1.11605  -1.01784
 Alpha  occ. eigenvalues --   -0.96318  -0.94448  -0.92950  -0.86231  -0.81430
 Alpha  occ. eigenvalues --   -0.76606  -0.76063  -0.72636  -0.71428  -0.66844
 Alpha  occ. eigenvalues --   -0.65405  -0.61781  -0.60496  -0.60021  -0.56831
 Alpha  occ. eigenvalues --   -0.54818  -0.52376  -0.51656  -0.50009  -0.49115
 Alpha  occ. eigenvalues --   -0.48671  -0.47772  -0.46292  -0.45651  -0.44959
 Alpha  occ. eigenvalues --   -0.44363  -0.43472  -0.42176  -0.40787  -0.39317
 Alpha  occ. eigenvalues --   -0.38656  -0.37383  -0.36559  -0.36051  -0.35810
 Alpha  occ. eigenvalues --   -0.35230  -0.34333  -0.32925  -0.32271  -0.31314
 Alpha  occ. eigenvalues --   -0.29289  -0.27021  -0.26546  -0.26053  -0.24398
 Alpha virt. eigenvalues --   -0.04597  -0.01591   0.00789   0.02157   0.06076
 Alpha virt. eigenvalues --    0.07906   0.08803   0.09137   0.09427   0.11258
 Alpha virt. eigenvalues --    0.12007   0.13697   0.14235   0.14919   0.15247

 Mulliken charges:
               1
     1  O   -0.560646
     2  S    1.292147
     3  N   -0.790673
     4  C    0.403863
     5  N   -0.358727
     6  N   -0.105512
     7  C    0.062173
     8  N   -0.354872
     9  C    0.329948
    10  C   -0.170609
    11  C   -0.156438
    12  C   -0.131752
    13  C   -0.155248
    14  C   -0.155496
    15  N   -0.519287
    16  C   -0.328110
    17  C   -0.342605
    18  O   -0.567952
    19  H    0.425002
    20  H    0.226269
    21  H    0.175073
    22  H    0.165555
    23  H    0.161012
    24  H    0.164668
    25  H    0.175751
    26  H    0.196617
    27  H    0.188996
    28  H    0.171666
    29  H    0.195584
    30  H    0.173304
    31  H    0.190301
 Sum of Mulliken charges =   0.00000

 Dipole moment (field-independent basis, Debye):
    X=              3.1134    Y=              0.7887    Z=              1.4007  Tot=              3.5039
 Quadrupole moment (field-independent basis, Debye-Ang):
   XX=            -84.6861   YY=           -116.0733   ZZ=           -110.2266
   XY=            -19.1826   XZ=             -8.4688   YZ=             -1.7533

 Normal termination of Gaussian 09 at Thu Aug  6 21:18:31 2020.
