 Gaussian 09, Revision D.01,

 -----------------
 #p b3lyp/6-31G(d)
 -----------------

 ----------------
 SM46.n.4.pdb.xyz
 ----------------
 Symbolic Z-matrix:
 Charge =  0 Multiplicity = 1

 SCF Done:  E(RB3LYP) =  -1211.16765625     A.U. after   16 cycles
 Normal termination of Gaussian 09 at Thu Aug  6 21:16:26 2020.
 Gaussian 09:  AM64L-G09RevD.01 24-Apr-2013

 ----------------------------------------------------------------------
 #p b3lyp/6-31G(d) scrf=(iefpcm,read,solvent=n-Octanol) geom=allcheck g
 uess=read
 ----------------------------------------------------------------------

 Structure from the checkpoint file:  "SM46.n.4.pdb.xyz.mst.n.o.chk"
 ----------------
 SM46.n.4.pdb.xyz
 ----------------
 Charge =  0 Multiplicity = 1

                         Standard orientation:
 ---------------------------------------------------------------------
 Center     Atomic      Atomic             Coordinates (Angstroms)
 Number     Number       Type             X           Y           Z
 ---------------------------------------------------------------------
      1          8           0       -4.167091   -1.093155   -0.680225
      2         16           0       -2.907735   -0.775545   -0.017260
      3          7           0       -1.905579   -0.251551   -1.290509
      4          6           0       -0.579009    0.136246   -1.049549
      5          7           0       -0.136601    1.386840   -1.356923
      6          7           0        1.139340    1.461238   -1.081339
      7          6           0        0.471127   -0.602125   -0.547733
      8          7           0        1.517131    0.265923   -0.570963
      9          6           0        2.861272    0.049666   -0.155078
     10          6           0        3.677604    1.151420    0.110954
     11          6           0        4.992010    0.937184    0.518024
     12          6           0        5.485019   -0.360855    0.667667
     13          6           0        4.657146   -1.451180    0.401214
     14          6           0        3.343494   -1.252731   -0.018030
     15          7           0       -3.228105    0.458082    1.062459
     16          6           0       -2.162941    0.837712    1.996546
     17          6           0       -4.024401    1.573813    0.544120
     18          8           0       -2.127732   -1.773759    0.708122
     19          1           0       -2.402561    0.367789   -1.926881
     20          1           0        0.534638   -1.606263   -0.170013
     21          1           0        3.274640    2.148096   -0.004148
     22          1           0        5.629316    1.789631    0.724579
     23          1           0        6.508441   -0.520867    0.989447
     24          1           0        5.032898   -2.461946    0.509248
     25          1           0        2.707412   -2.099107   -0.245361
     26          1           0       -1.639082   -0.057193    2.325012
     27          1           0       -2.635770    1.309196    2.860649
     28          1           0       -1.451540    1.545967    1.554098
     29          1           0       -4.835380    1.185502   -0.068902
     30          1           0       -3.420654    2.281515   -0.040469
     31          1           0       -4.451247    2.103076    1.397830
 ---------------------------------------------------------------------

 SCF Done:  E(RB3LYP) =  -1211.18745598     A.U. after   11 cycles

 The electronic state is 1-A.
 Alpha  occ. eigenvalues --  -89.14144 -19.15937 -19.15779 -14.44796 -14.40379
 Alpha  occ. eigenvalues --  -14.38776 -14.38358 -14.37028 -10.26661 -10.25439
 Alpha  occ. eigenvalues --  -10.24468 -10.22733 -10.22597 -10.21083 -10.20661
 Alpha  occ. eigenvalues --  -10.20603 -10.20512 -10.20265  -8.16367  -6.12871
 Alpha  occ. eigenvalues --   -6.12780  -6.12757  -1.13710  -1.11462  -1.02186
 Alpha  occ. eigenvalues --   -0.96254  -0.94787  -0.92942  -0.86411  -0.81230
 Alpha  occ. eigenvalues --   -0.76765  -0.76270  -0.73377  -0.71624  -0.67138
 Alpha  occ. eigenvalues --   -0.65787  -0.62089  -0.60719  -0.59876  -0.57028
 Alpha  occ. eigenvalues --   -0.55152  -0.52414  -0.51587  -0.50195  -0.49291
 Alpha  occ. eigenvalues --   -0.48838  -0.48213  -0.47084  -0.45884  -0.44868
 Alpha  occ. eigenvalues --   -0.44483  -0.43782  -0.42404  -0.41466  -0.39544
 Alpha  occ. eigenvalues --   -0.39425  -0.37682  -0.36875  -0.36220  -0.35906
 Alpha  occ. eigenvalues --   -0.35038  -0.33322  -0.32785  -0.32404  -0.31864
 Alpha  occ. eigenvalues --   -0.28921  -0.28042  -0.26788  -0.25815  -0.23528
 Alpha virt. eigenvalues --   -0.04756  -0.01786   0.01256   0.02040   0.05912
 Alpha virt. eigenvalues --    0.07689   0.08372   0.08950   0.09786   0.10664
 Alpha virt. eigenvalues --    0.11453   0.12060   0.13788   0.14517   0.14955

 Mulliken charges:
               1
     1  O   -0.549069
     2  S    1.306848
     3  N   -0.767278
     4  C    0.380431
     5  N   -0.346399
     6  N   -0.085979
     7  C    0.046972
     8  N   -0.366411
     9  C    0.330939
    10  C   -0.152288
    11  C   -0.148224
    12  C   -0.125011
    13  C   -0.149041
    14  C   -0.169728
    15  N   -0.497321
    16  C   -0.333079
    17  C   -0.339514
    18  O   -0.558627
    19  H    0.387218
    20  H    0.215976
    21  H    0.175892
    22  H    0.156685
    23  H    0.153136
    24  H    0.157697
    25  H    0.164403
    26  H    0.201782
    27  H    0.183375
    28  H    0.169613
    29  H    0.202606
    30  H    0.167157
    31  H    0.187238
 Sum of Mulliken charges =   0.00000

 Dipole moment (field-independent basis, Debye):
    X=              4.1321    Y=              2.1126    Z=              2.3907  Tot=              5.2204
 Quadrupole moment (field-independent basis, Debye-Ang):
   XX=           -100.4788   YY=           -112.6596   ZZ=           -111.5881
   XY=            -21.2386   XZ=              2.0486   YZ=              5.7292

 Normal termination of Gaussian 09 at Thu Aug  6 21:19:31 2020.
