 Gaussian 09, Revision D.01,

 -----------------
 #p b3lyp/6-31G(d)
 -----------------

 ----------------
 SM46.n.4.pdb.xyz
 ----------------
 Symbolic Z-matrix:
 Charge =  0 Multiplicity = 1

 SCF Done:  E(RB3LYP) =  -1211.16691929     A.U. after   15 cycles
 Normal termination of Gaussian 09 at Thu Aug  6 21:15:24 2020.
 Gaussian 09:  AM64L-G09RevD.01 24-Apr-2013

 ----------------------------------------------------------------------
 #p b3lyp/6-31G(d) scrf=(iefpcm,read,solvent=Water) geom=allcheck guess
 =read
 ----------------------------------------------------------------------

 Structure from the checkpoint file:  "SM46.n.4.pdb.xyz.mst.n.w.chk"
 ----------------
 SM46.n.4.pdb.xyz
 ----------------
 Charge =  0 Multiplicity = 1

                         Standard orientation:
 ---------------------------------------------------------------------
 Center     Atomic      Atomic             Coordinates (Angstroms)
 Number     Number       Type             X           Y           Z
 ---------------------------------------------------------------------
      1          8           0       -4.137974   -1.305182   -0.395345
      2         16           0       -2.896650   -0.774444    0.168499
      3          7           0       -1.883020   -0.594750   -1.187850
      4          6           0       -0.569594   -0.120835   -1.025372
      5          7           0       -0.169455    1.089020   -1.505441
      6          7           0        1.104217    1.242385   -1.251353
      7          6           0        0.508879   -0.746162   -0.435018
      8          7           0        1.523828    0.143112   -0.585891
      9          6           0        2.877569    0.026993   -0.157696
     10          6           0        3.607630    1.186181    0.110896
     11          6           0        4.933729    1.071390    0.524526
     12          6           0        5.519290   -0.187180    0.680554
     13          6           0        4.774081   -1.336564    0.413800
     14          6           0        3.451821   -1.237589   -0.014394
     15          7           0       -3.280034    0.682927    0.885743
     16          6           0       -2.242287    1.328906    1.703199
     17          6           0       -4.079383    1.609060    0.073147
     18          8           0       -2.120376   -1.535324    1.146145
     19          1           0       -2.384079   -0.129155   -1.947135
     20          1           0        0.614924   -1.688409    0.071645
     21          1           0        3.135199    2.153423   -0.002689
     22          1           0        5.504531    1.968792    0.733164
     23          1           0        6.549049   -0.271205    1.009274
     24          1           0        5.223564   -2.317013    0.527300
     25          1           0        2.879975   -2.128336   -0.245915
     26          1           0       -1.708472    0.572281    2.273919
     27          1           0       -2.749032    2.004417    2.395607
     28          1           0       -1.536363    1.907342    1.097880
     29          1           0       -4.863951    1.056719   -0.442035
     30          1           0       -3.468747    2.155927   -0.655742
     31          1           0       -4.542560    2.326309    0.754030
 ---------------------------------------------------------------------

 SCF Done:  E(RB3LYP) =  -1211.18757402     A.U. after   11 cycles

 The electronic state is 1-A.
 Alpha  occ. eigenvalues --  -89.14335 -19.16233 -19.16053 -14.44868 -14.40641
 Alpha  occ. eigenvalues --  -14.38750 -14.38486 -14.37381 -10.26655 -10.25218
 Alpha  occ. eigenvalues --  -10.24533 -10.22347 -10.22236 -10.20813 -10.20552
 Alpha  occ. eigenvalues --  -10.20300 -10.20255 -10.20026  -8.16577  -6.13069
 Alpha  occ. eigenvalues --   -6.13001  -6.12961  -1.13857  -1.11642  -1.02291
 Alpha  occ. eigenvalues --   -0.96226  -0.94743  -0.92962  -0.86246  -0.81252
 Alpha  occ. eigenvalues --   -0.76591  -0.76056  -0.72988  -0.71593  -0.66964
 Alpha  occ. eigenvalues --   -0.65718  -0.61950  -0.60571  -0.59882  -0.56748
 Alpha  occ. eigenvalues --   -0.54988  -0.52155  -0.51755  -0.50070  -0.49303
 Alpha  occ. eigenvalues --   -0.48768  -0.47974  -0.46830  -0.45591  -0.44901
 Alpha  occ. eigenvalues --   -0.44324  -0.43452  -0.42135  -0.41055  -0.39191
 Alpha  occ. eigenvalues --   -0.39158  -0.37386  -0.36980  -0.36373  -0.35642
 Alpha  occ. eigenvalues --   -0.35391  -0.33643  -0.32992  -0.32518  -0.32076
 Alpha  occ. eigenvalues --   -0.29419  -0.28179  -0.26597  -0.25820  -0.23900
 Alpha virt. eigenvalues --   -0.04566  -0.01575   0.00705   0.01768   0.06105
 Alpha virt. eigenvalues --    0.07973   0.08722   0.09003   0.09534   0.11072
 Alpha virt. eigenvalues --    0.11913   0.12912   0.14062   0.14892   0.14951

 Mulliken charges:
               1
     1  O   -0.570562
     2  S    1.296587
     3  N   -0.771472
     4  C    0.375338
     5  N   -0.364947
     6  N   -0.107386
     7  C    0.063177
     8  N   -0.351019
     9  C    0.325830
    10  C   -0.154381
    11  C   -0.155348
    12  C   -0.131114
    13  C   -0.156345
    14  C   -0.168330
    15  N   -0.505794
    16  C   -0.332381
    17  C   -0.336580
    18  O   -0.574106
    19  H    0.416037
    20  H    0.225100
    21  H    0.175165
    22  H    0.164912
    23  H    0.161379
    24  H    0.165545
    25  H    0.175836
    26  H    0.200545
    27  H    0.190568
    28  H    0.174861
    29  H    0.200795
    30  H    0.174275
    31  H    0.193815
 Sum of Mulliken charges =   0.00000

 Dipole moment (field-independent basis, Debye):
    X=              4.7438    Y=              2.6681    Z=              1.3450  Tot=              5.6064
 Quadrupole moment (field-independent basis, Debye-Ang):
   XX=            -99.1735   YY=           -110.2132   ZZ=           -113.9284
   XY=            -23.7521   XZ=              7.9749   YZ=              8.0499

 Normal termination of Gaussian 09 at Thu Aug  6 21:18:19 2020.
