 Gaussian 09, Revision D.01,

 -----------------
 #p b3lyp/6-31G(d)
 -----------------

 ----------------
 SM46.n.9.pdb.xyz
 ----------------
 Symbolic Z-matrix:
 Charge =  0 Multiplicity = 1

 SCF Done:  E(RB3LYP) =  -1211.16581016     A.U. after   15 cycles
 Normal termination of Gaussian 09 at Thu Aug  6 21:17:20 2020.
 Gaussian 09:  AM64L-G09RevD.01 24-Apr-2013

 ----------------------------------------------------------------------
 #p b3lyp/6-31G(d) scrf=(iefpcm,read,solvent=Water) geom=allcheck guess
 =read
 ----------------------------------------------------------------------

 Structure from the checkpoint file:  "SM46.n.9.pdb.xyz.mst.n.w.chk"
 ----------------
 SM46.n.9.pdb.xyz
 ----------------
 Charge =  0 Multiplicity = 1

                         Standard orientation:
 ---------------------------------------------------------------------
 Center     Atomic      Atomic             Coordinates (Angstroms)
 Number     Number       Type             X           Y           Z
 ---------------------------------------------------------------------
      1          8           0       -2.498573   -0.283611   -1.739067
      2         16           0       -2.942461   -0.298039   -0.340655
      3          7           0       -1.895884   -1.173693    0.664798
      4          6           0       -0.519291   -1.166142    0.375039
      5          7           0        0.131878   -2.283524   -0.048830
      6          7           0        1.401675   -2.000433   -0.192153
      7          6           0        0.388593   -0.136243    0.494390
      8          7           0        1.567595   -0.695915    0.120982
      9          6           0        2.850449   -0.084316    0.040044
     10          6           0        2.945005    1.293759   -0.166251
     11          6           0        4.204799    1.886380   -0.236007
     12          6           0        5.357658    1.108239   -0.115352
     13          6           0        5.247348   -0.269198    0.082611
     14          6           0        3.995529   -0.874573    0.168359
     15          7           0       -2.672741    1.239878    0.258561
     16          6           0       -2.983102    2.330285   -0.680282
     17          6           0       -3.182042    1.462420    1.621637
     18          8           0       -4.274899   -0.833457   -0.026915
     19          1           0       -2.271639   -2.115480    0.791286
     20          1           0        0.292770    0.884912    0.815164
     21          1           0        2.048897    1.891180   -0.283421
     22          1           0        4.281577    2.955534   -0.395603
     23          1           0        6.336320    1.572943   -0.174518
     24          1           0        6.139068   -0.879049    0.181801
     25          1           0        3.895975   -1.938389    0.334940
     26          1           0       -2.539010    2.112656   -1.648687
     27          1           0       -2.533530    3.238680   -0.275104
     28          1           0       -4.061546    2.491029   -0.793975
     29          1           0       -2.864187    0.643533    2.265723
     30          1           0       -4.274552    1.548875    1.645993
     31          1           0       -2.740338    2.390896    1.986099
 ---------------------------------------------------------------------

 SCF Done:  E(RB3LYP) =  -1211.18753535     A.U. after   11 cycles

 The electronic state is 1-A.
 Alpha  occ. eigenvalues --  -89.14242 -19.16137 -19.16044 -14.44794 -14.40527
 Alpha  occ. eigenvalues --  -14.38733 -14.38295 -14.37243 -10.26567 -10.25214
 Alpha  occ. eigenvalues --  -10.24423 -10.22105 -10.22098 -10.20800 -10.20511
 Alpha  occ. eigenvalues --  -10.20297 -10.20227 -10.19995  -8.16516  -6.13001
 Alpha  occ. eigenvalues --   -6.12937  -6.12895  -1.13541  -1.11513  -1.01737
 Alpha  occ. eigenvalues --   -0.96371  -0.94747  -0.92886  -0.86203  -0.81245
 Alpha  occ. eigenvalues --   -0.76595  -0.76047  -0.72846  -0.71850  -0.66726
 Alpha  occ. eigenvalues --   -0.65511  -0.61584  -0.60556  -0.59469  -0.56739
 Alpha  occ. eigenvalues --   -0.54251  -0.52368  -0.51654  -0.49913  -0.49298
 Alpha  occ. eigenvalues --   -0.48824  -0.47827  -0.46395  -0.45434  -0.45031
 Alpha  occ. eigenvalues --   -0.44295  -0.43461  -0.41867  -0.40920  -0.39150
 Alpha  occ. eigenvalues --   -0.38855  -0.37461  -0.37356  -0.36134  -0.35878
 Alpha  occ. eigenvalues --   -0.34979  -0.34831  -0.33087  -0.32182  -0.31141
 Alpha  occ. eigenvalues --   -0.29435  -0.27009  -0.26565  -0.25971  -0.24198
 Alpha virt. eigenvalues --   -0.04558  -0.01570   0.01169   0.02159   0.06008
 Alpha virt. eigenvalues --    0.07139   0.08945   0.09166   0.09301   0.11083
 Alpha virt. eigenvalues --    0.12279   0.13402   0.14067   0.14942   0.15152

 Mulliken charges:
               1
     1  O   -0.560602
     2  S    1.311989
     3  N   -0.796857
     4  C    0.399534
     5  N   -0.366889
     6  N   -0.107518
     7  C    0.051988
     8  N   -0.351260
     9  C    0.328192
    10  C   -0.169441
    11  C   -0.156197
    12  C   -0.131779
    13  C   -0.155296
    14  C   -0.154531
    15  N   -0.525045
    16  C   -0.326050
    17  C   -0.327314
    18  O   -0.566322
    19  H    0.420050
    20  H    0.223851
    21  H    0.172874
    22  H    0.165469
    23  H    0.160996
    24  H    0.164505
    25  H    0.175113
    26  H    0.199117
    27  H    0.188557
    28  H    0.172998
    29  H    0.196119
    30  H    0.174669
    31  H    0.189082
 Sum of Mulliken charges =   0.00000

 Dipole moment (field-independent basis, Debye):
    X=              3.9103    Y=              7.5914    Z=              4.4313  Tot=              9.6206
 Quadrupole moment (field-independent basis, Debye-Ang):
   XX=           -104.1692   YY=           -104.9787   ZZ=           -115.5060
   XY=             -5.0752   XZ=             -8.0476   YZ=             -4.1762

 Normal termination of Gaussian 09 at Thu Aug  6 21:20:04 2020.
