 Gaussian 09, Revision D.01,

 -----------------
 #p b3lyp/6-31G(d)
 -----------------

 ----------------
 SM46.n.3.pdb.xyz
 ----------------
 Symbolic Z-matrix:
 Charge =  0 Multiplicity = 1

 SCF Done:  E(RB3LYP) =  -1211.15787396     A.U. after   16 cycles
 Normal termination of Gaussian 09 at Thu Aug  6 21:09:33 2020.
 Gaussian 09:  AM64L-G09RevD.01 24-Apr-2013

 ----------------------------------------------------------------------
 #p b3lyp/6-31G(d) scrf=(iefpcm,read,solvent=n-Octanol) geom=allcheck g
 uess=read
 ----------------------------------------------------------------------

 Structure from the checkpoint file:  "SM46.n.3.pdb.xyz.mst.n.o.chk"
 ----------------
 SM46.n.3.pdb.xyz
 ----------------
 Charge =  0 Multiplicity = 1

                         Standard orientation:
 ---------------------------------------------------------------------
 Center     Atomic      Atomic             Coordinates (Angstroms)
 Number     Number       Type             X           Y           Z
 ---------------------------------------------------------------------
      1          8           0        4.155400   -1.396409    0.079372
      2         16           0        3.238171   -0.329573   -0.318682
      3          7           0        1.781676   -1.193734   -0.543038
      4          6           0        0.522266   -0.585307   -0.565579
      5          7           0        0.284273    0.579454   -1.225553
      6          7           0       -0.983738    0.879318   -1.103564
      7          6           0       -0.656336   -1.035724   -0.009626
      8          7           0       -1.571269   -0.097297   -0.382781
      9          6           0       -2.965827   -0.057829   -0.102017
     10          6           0       -3.629163   -1.224043    0.285211
     11          6           0       -4.991853   -1.170164    0.567633
     12          6           0       -5.689548    0.033005    0.453193
     13          6           0       -5.014990    1.189679    0.056216
     14          6           0       -3.651095    1.153720   -0.218763
     15          7           0        3.106303    0.722404    0.958772
     16          6           0        2.596432    2.078244    0.735338
     17          6           0        2.833642    0.136501    2.271408
     18          8           0        3.475258    0.476304   -1.508412
     19          1           0        1.822997   -2.081979   -0.052613
     20          1           0       -0.900702   -1.892273    0.592760
     21          1           0       -3.090170   -2.161700    0.352271
     22          1           0       -5.508302   -2.074526    0.868949
     23          1           0       -6.751488    0.069714    0.670474
     24          1           0       -5.549455    2.127751   -0.033938
     25          1           0       -3.109726    2.040968   -0.520394
     26          1           0        2.857412    2.395512   -0.271268
     27          1           0        3.082909    2.738152    1.458047
     28          1           0        1.510717    2.140203    0.865057
     29          1           0        3.363316   -0.810280    2.360466
     30          1           0        1.760207   -0.018047    2.443718
     31          1           0        3.214386    0.821006    3.032763
 ---------------------------------------------------------------------

 SCF Done:  E(RB3LYP) =  -1211.18170288     A.U. after   12 cycles

 The electronic state is 1-A.
 Alpha  occ. eigenvalues --  -89.14145 -19.15482 -19.15360 -14.44778 -14.40330
 Alpha  occ. eigenvalues --  -14.38787 -14.38200 -14.36736 -10.27038 -10.25476
 Alpha  occ. eigenvalues --  -10.24478 -10.22845 -10.22169 -10.21130 -10.20654
 Alpha  occ. eigenvalues --  -10.20649 -10.20509 -10.20279  -8.16300  -6.12820
 Alpha  occ. eigenvalues --   -6.12704  -6.12701  -1.13400  -1.11483  -1.01713
 Alpha  occ. eigenvalues --   -0.96197  -0.94625  -0.92981  -0.86410  -0.81252
 Alpha  occ. eigenvalues --   -0.76792  -0.76292  -0.73282  -0.71819  -0.67212
 Alpha  occ. eigenvalues --   -0.66040  -0.62694  -0.61279  -0.58271  -0.56816
 Alpha  occ. eigenvalues --   -0.54486  -0.53317  -0.51280  -0.50192  -0.49323
 Alpha  occ. eigenvalues --   -0.48759  -0.48528  -0.46796  -0.45905  -0.44772
 Alpha  occ. eigenvalues --   -0.44545  -0.43825  -0.42162  -0.41326  -0.39637
 Alpha  occ. eigenvalues --   -0.39383  -0.37793  -0.36665  -0.36466  -0.35977
 Alpha  occ. eigenvalues --   -0.34656  -0.33205  -0.32948  -0.32010  -0.31311
 Alpha  occ. eigenvalues --   -0.28560  -0.27505  -0.26793  -0.25775  -0.23125
 Alpha virt. eigenvalues --   -0.04754  -0.01794   0.01513   0.02480   0.05791
 Alpha virt. eigenvalues --    0.08128   0.08295   0.08885   0.09501   0.10578
 Alpha virt. eigenvalues --    0.10896   0.11442   0.13854   0.14478   0.15013

 Mulliken charges:
               1
     1  O   -0.562723
     2  S    1.311051
     3  N   -0.780669
     4  C    0.418767
     5  N   -0.340989
     6  N   -0.082685
     7  C    0.002395
     8  N   -0.362925
     9  C    0.332490
    10  C   -0.170546
    11  C   -0.149413
    12  C   -0.125562
    13  C   -0.147929
    14  C   -0.153104
    15  N   -0.506322
    16  C   -0.316222
    17  C   -0.333101
    18  O   -0.536089
    19  H    0.388036
    20  H    0.210601
    21  H    0.162090
    22  H    0.157073
    23  H    0.153012
    24  H    0.156819
    25  H    0.176566
    26  H    0.205712
    27  H    0.175086
    28  H    0.168300
    29  H    0.199156
    30  H    0.164124
    31  H    0.187000
 Sum of Mulliken charges =   0.00000

 Dipole moment (field-independent basis, Debye):
    X=             -7.5758    Y=             -1.9070    Z=              6.9125  Tot=             10.4313
 Quadrupole moment (field-independent basis, Debye-Ang):
   XX=           -116.1314   YY=           -100.5074   ZZ=           -115.6963
   XY=              7.6918   XZ=              9.9885   YZ=              1.7425

 Normal termination of Gaussian 09 at Thu Aug  6 21:13:12 2020.
