 Gaussian 09, Revision D.01,

 -----------------
 #p b3lyp/6-31G(d)
 -----------------

 ----------------
 SM46.n.6.pdb.xyz
 ----------------
 Symbolic Z-matrix:
 Charge =  0 Multiplicity = 1

 SCF Done:  E(RB3LYP) =  -1211.16386119     A.U. after   16 cycles
 Normal termination of Gaussian 09 at Thu Aug  6 21:16:50 2020.
 Gaussian 09:  AM64L-G09RevD.01 24-Apr-2013

 ----------------------------------------------------------------------
 #p b3lyp/6-31G(d) scrf=(iefpcm,read,solvent=Water) geom=allcheck guess
 =read
 ----------------------------------------------------------------------

 Structure from the checkpoint file:  "SM46.n.6.pdb.xyz.mst.n.w.chk"
 ----------------
 SM46.n.6.pdb.xyz
 ----------------
 Charge =  0 Multiplicity = 1

                         Standard orientation:
 ---------------------------------------------------------------------
 Center     Atomic      Atomic             Coordinates (Angstroms)
 Number     Number       Type             X           Y           Z
 ---------------------------------------------------------------------
      1          8           0        2.001660    0.330673    1.626874
      2         16           0        2.856987   -0.209942    0.571721
      3          7           0        1.833291   -0.847758   -0.650492
      4          6           0        0.452285   -0.941070   -0.415231
      5          7           0       -0.162126   -2.131327   -0.167639
      6          7           0       -1.447092   -1.924718   -0.038724
      7          6           0       -0.499940    0.055739   -0.434451
      8          7           0       -1.662939   -0.596138   -0.183324
      9          6           0       -2.976903   -0.056395   -0.075363
     10          6           0       -3.145520    1.283266    0.281535
     11          6           0       -4.434452    1.804744    0.375722
     12          6           0       -5.544169    0.992709    0.130869
     13          6           0       -5.359532   -0.346781   -0.216163
     14          6           0       -4.076969   -0.877741   -0.328225
     15          7           0        3.663741    1.080504   -0.113926
     16          6           0        4.611170    0.725151   -1.181581
     17          6           0        2.817720    2.238519   -0.440294
     18          8           0        3.866878   -1.231311    0.862031
     19          1           0        2.235821   -1.716522   -1.001538
     20          1           0       -0.441330    1.114750   -0.612145
     21          1           0       -2.284071    1.905362    0.493236
     22          1           0       -4.568460    2.844718    0.651030
     23          1           0       -6.545346    1.402350    0.210395
     24          1           0       -6.216377   -0.982616   -0.411585
     25          1           0       -3.920510   -1.911404   -0.609286
     26          1           0        5.237851   -0.100426   -0.853015
     27          1           0        5.239455    1.599134   -1.361146
     28          1           0        4.099658    0.457697   -2.114796
     29          1           0        2.174553    2.468065    0.406116
     30          1           0        2.209398    2.065529   -1.336544
     31          1           0        3.483004    3.084756   -0.621677
 ---------------------------------------------------------------------

 SCF Done:  E(RB3LYP) =  -1211.18615694     A.U. after   11 cycles

 The electronic state is 1-A.
 Alpha  occ. eigenvalues --  -89.14295 -19.16483 -19.16388 -14.44779 -14.40518
 Alpha  occ. eigenvalues --  -14.38386 -14.38355 -14.37184 -10.26533 -10.25210
 Alpha  occ. eigenvalues --  -10.24485 -10.22258 -10.22151 -10.20788 -10.20483
 Alpha  occ. eigenvalues --  -10.20293 -10.20212 -10.19984  -8.16585  -6.13055
 Alpha  occ. eigenvalues --   -6.13016  -6.12970  -1.13894  -1.11451  -1.02452
 Alpha  occ. eigenvalues --   -0.95940  -0.94852  -0.92725  -0.86204  -0.81122
 Alpha  occ. eigenvalues --   -0.76529  -0.76015  -0.72861  -0.71687  -0.66764
 Alpha  occ. eigenvalues --   -0.65484  -0.61713  -0.60502  -0.59729  -0.56712
 Alpha  occ. eigenvalues --   -0.54637  -0.52268  -0.51878  -0.50021  -0.49242
 Alpha  occ. eigenvalues --   -0.48812  -0.47825  -0.46792  -0.45514  -0.44967
 Alpha  occ. eigenvalues --   -0.44333  -0.43456  -0.42139  -0.40976  -0.39064
 Alpha  occ. eigenvalues --   -0.38960  -0.37482  -0.37350  -0.36208  -0.35910
 Alpha  occ. eigenvalues --   -0.34654  -0.34039  -0.33664  -0.32279  -0.31670
 Alpha  occ. eigenvalues --   -0.29475  -0.26974  -0.26544  -0.26267  -0.24219
 Alpha virt. eigenvalues --   -0.04554  -0.01562   0.00947   0.02005   0.06225
 Alpha virt. eigenvalues --    0.07715   0.08126   0.08675   0.09189   0.10551
 Alpha virt. eigenvalues --    0.11505   0.13638   0.14047   0.14559   0.15122

 Mulliken charges:
               1
     1  O   -0.570422
     2  S    1.336006
     3  N   -0.811772
     4  C    0.403067
     5  N   -0.364823
     6  N   -0.107323
     7  C    0.047733
     8  N   -0.355155
     9  C    0.330272
    10  C   -0.170597
    11  C   -0.156471
    12  C   -0.132150
    13  C   -0.155033
    14  C   -0.155593
    15  N   -0.503552
    16  C   -0.335421
    17  C   -0.341225
    18  O   -0.567631
    19  H    0.416795
    20  H    0.223072
    21  H    0.173712
    22  H    0.165353
    23  H    0.160884
    24  H    0.164478
    25  H    0.175191
    26  H    0.198682
    27  H    0.191488
    28  H    0.173412
    29  H    0.199135
    30  H    0.173902
    31  H    0.193986
 Sum of Mulliken charges =   0.00000

 Dipole moment (field-independent basis, Debye):
    X=             -2.5680    Y=              6.8190    Z=             -5.9657  Tot=              9.4172
 Quadrupole moment (field-independent basis, Debye-Ang):
   XX=            -90.3444   YY=           -109.6387   ZZ=           -116.4948
   XY=              2.5301   XZ=            -16.8369   YZ=              2.6333

 Normal termination of Gaussian 09 at Thu Aug  6 21:19:30 2020.
