 Gaussian 09, Revision D.01,

 -----------------
 #p b3lyp/6-31G(d)
 -----------------

 ----------------
 SM46.n.8.pdb.xyz
 ----------------
 Symbolic Z-matrix:
 Charge =  0 Multiplicity = 1

 SCF Done:  E(RB3LYP) =  -1211.16780983     A.U. after   15 cycles
 Normal termination of Gaussian 09 at Thu Aug  6 21:17:16 2020.
 Gaussian 09:  AM64L-G09RevD.01 24-Apr-2013

 ----------------------------------------------------------------------
 #p b3lyp/6-31G(d) scrf=(iefpcm,read,solvent=n-Octanol) geom=allcheck g
 uess=read
 ----------------------------------------------------------------------

 Structure from the checkpoint file:  "SM46.n.8.pdb.xyz.mst.n.o.chk"
 ----------------
 SM46.n.8.pdb.xyz
 ----------------
 Charge =  0 Multiplicity = 1

                         Standard orientation:
 ---------------------------------------------------------------------
 Center     Atomic      Atomic             Coordinates (Angstroms)
 Number     Number       Type             X           Y           Z
 ---------------------------------------------------------------------
      1          8           0       -4.167131   -0.512573   -1.184584
      2         16           0       -2.910489   -0.619820   -0.450921
      3          7           0       -1.893143    0.500491   -1.233338
      4          6           0       -0.571210    0.687039   -0.804758
      5          7           0       -0.128579    1.895076   -0.355224
      6          7           0        1.143625    1.798250   -0.072532
      7          6           0        0.476804   -0.208470   -0.793927
      8          7           0        1.521084    0.522619   -0.319157
      9          6           0        2.861848    0.105754   -0.084717
     10          6           0        3.147413   -1.252482    0.065000
     11          6           0        4.464778   -1.650217    0.284489
     12          6           0        5.483746   -0.700264    0.365128
     13          6           0        5.180346    0.655182    0.222562
     14          6           0        3.871818    1.066631   -0.009529
     15          7           0       -3.230936   -0.167173    1.123687
     16          6           0       -2.172368   -0.368673    2.117767
     17          6           0       -4.021235    1.056102    1.296099
     18          8           0       -2.145125   -1.860676   -0.382950
     19          1           0       -2.382656    1.370447   -1.434989
     20          1           0        0.550494   -1.241964   -1.077750
     21          1           0        2.352365   -1.986561    0.022628
     22          1           0        4.689389   -2.704102    0.399387
     23          1           0        6.506826   -1.013606    0.540161
     24          1           0        5.966990    1.398595    0.281735
     25          1           0        3.618226    2.111171   -0.131827
     26          1           0       -1.653767   -1.300920    1.905134
     27          1           0       -2.648432   -0.444925    3.098033
     28          1           0       -1.455507    0.460707    2.139509
     29          1           0       -4.822171    1.073419    0.559408
     30          1           0       -3.410263    1.963353    1.206371
     31          1           0       -4.461623    1.029074    2.294482
 ---------------------------------------------------------------------

 SCF Done:  E(RB3LYP) =  -1211.18742583     A.U. after   11 cycles

 The electronic state is 1-A.
 Alpha  occ. eigenvalues --  -89.14122 -19.15926 -19.15747 -14.44822 -14.40425
 Alpha  occ. eigenvalues --  -14.38767 -14.38358 -14.37061 -10.26665 -10.25444
 Alpha  occ. eigenvalues --  -10.24525 -10.22728 -10.22583 -10.21112 -10.20650
 Alpha  occ. eigenvalues --  -10.20628 -10.20498 -10.20269  -8.16347  -6.12851
 Alpha  occ. eigenvalues --   -6.12760  -6.12738  -1.13681  -1.11501  -1.02149
 Alpha  occ. eigenvalues --   -0.96258  -0.94778  -0.92968  -0.86426  -0.81238
 Alpha  occ. eigenvalues --   -0.76773  -0.76287  -0.73380  -0.71635  -0.67130
 Alpha  occ. eigenvalues --   -0.65807  -0.62058  -0.60731  -0.59943  -0.57035
 Alpha  occ. eigenvalues --   -0.55149  -0.52415  -0.51587  -0.50223  -0.49210
 Alpha  occ. eigenvalues --   -0.48920  -0.48227  -0.47087  -0.45894  -0.44866
 Alpha  occ. eigenvalues --   -0.44501  -0.43830  -0.42363  -0.41459  -0.39547
 Alpha  occ. eigenvalues --   -0.39347  -0.37715  -0.36818  -0.36263  -0.36011
 Alpha  occ. eigenvalues --   -0.34988  -0.33302  -0.32855  -0.32285  -0.31828
 Alpha  occ. eigenvalues --   -0.28990  -0.28057  -0.26793  -0.25850  -0.23550
 Alpha virt. eigenvalues --   -0.04743  -0.01804   0.01212   0.02007   0.05863
 Alpha virt. eigenvalues --    0.07707   0.08358   0.08896   0.09817   0.10659
 Alpha virt. eigenvalues --    0.11553   0.12043   0.13820   0.14520   0.14893

 Mulliken charges:
               1
     1  O   -0.549992
     2  S    1.305918
     3  N   -0.766735
     4  C    0.380126
     5  N   -0.345610
     6  N   -0.084656
     7  C    0.047120
     8  N   -0.365905
     9  C    0.331023
    10  C   -0.169820
    11  C   -0.149061
    12  C   -0.125191
    13  C   -0.148109
    14  C   -0.151522
    15  N   -0.497805
    16  C   -0.333350
    17  C   -0.339150
    18  O   -0.558289
    19  H    0.387119
    20  H    0.215009
    21  H    0.162387
    22  H    0.157805
    23  H    0.153215
    24  H    0.156740
    25  H    0.176066
    26  H    0.201003
    27  H    0.183174
    28  H    0.170492
    29  H    0.202543
    30  H    0.168187
    31  H    0.187267
 Sum of Mulliken charges =   0.00000

 Dipole moment (field-independent basis, Debye):
    X=              4.1976    Y=              0.5164    Z=              3.0196  Tot=              5.1966
 Quadrupole moment (field-independent basis, Debye-Ang):
   XX=            -99.9958   YY=           -114.7957   ZZ=           -109.7136
   XY=            -17.4178   XZ=            -10.8688   YZ=             -2.7702

 Normal termination of Gaussian 09 at Thu Aug  6 21:20:03 2020.
