 Gaussian 09, Revision D.01,

 -----------------
 #p b3lyp/6-31G(d)
 -----------------

 ----------------
 SM46.n.5.pdb.xyz
 ----------------
 Symbolic Z-matrix:
 Charge =  0 Multiplicity = 1

 SCF Done:  E(RB3LYP) =  -1211.16562478     A.U. after   16 cycles
 Normal termination of Gaussian 09 at Thu Aug  6 21:16:52 2020.
 Gaussian 09:  AM64L-G09RevD.01 24-Apr-2013

 ----------------------------------------------------------------------
 #p b3lyp/6-31G(d) scrf=(iefpcm,read,solvent=n-Octanol) geom=allcheck g
 uess=read
 ----------------------------------------------------------------------

 Structure from the checkpoint file:  "SM46.n.5.pdb.xyz.mst.n.o.chk"
 ----------------
 SM46.n.5.pdb.xyz
 ----------------
 Charge =  0 Multiplicity = 1

                         Standard orientation:
 ---------------------------------------------------------------------
 Center     Atomic      Atomic             Coordinates (Angstroms)
 Number     Number       Type             X           Y           Z
 ---------------------------------------------------------------------
      1          8           0       -3.818622   -1.255928   -1.179885
      2         16           0       -2.819532   -0.658586   -0.298367
      3          7           0       -1.753503    0.215462   -1.266476
      4          6           0       -0.434498    0.483203   -0.869843
      5          7           0       -0.006432    1.750052   -0.607163
      6          7           0        1.262775    1.710407   -0.303526
      7          6           0        0.619946   -0.388123   -0.713560
      8          7           0        1.653717    0.414270   -0.349011
      9          6           0        2.995835    0.051813   -0.043845
     10          6           0        3.291721   -1.261557    0.325925
     11          6           0        4.611350   -1.605257    0.611306
     12          6           0        5.621800   -0.645229    0.542389
     13          6           0        5.308407    0.666345    0.178887
     14          6           0        3.996658    1.021496   -0.120769
     15          7           0       -3.620908    0.552545    0.560891
     16          6           0       -4.916306    0.126364    1.114377
     17          6           0       -2.770809    1.261572    1.528921
     18          8           0       -1.986284   -1.512797    0.550821
     19          1           0       -2.215737    0.977865   -1.756830
     20          1           0        0.706397   -1.453049   -0.832156
     21          1           0        2.502105   -2.000194    0.401179
     22          1           0        4.844391   -2.623677    0.898373
     23          1           0        6.646525   -0.917632    0.769109
     24          1           0        6.088661    1.416658    0.121353
     25          1           0        3.735705    2.029588   -0.412334
     26          1           0       -5.497463   -0.363290    0.334963
     27          1           0       -5.441381    1.025889    1.439741
     28          1           0       -4.807360   -0.548724    1.972444
     29          1           0       -1.877355    1.637498    1.030161
     30          1           0       -2.482529    0.628606    2.377287
     31          1           0       -3.344358    2.114733    1.897375
 ---------------------------------------------------------------------

 SCF Done:  E(RB3LYP) =  -1211.18472710     A.U. after   11 cycles

 The electronic state is 1-A.
 Alpha  occ. eigenvalues --  -89.13889 -19.15724 -19.15521 -14.44838 -14.40446
 Alpha  occ. eigenvalues --  -14.38850 -14.37946 -14.37171 -10.26694 -10.25438
 Alpha  occ. eigenvalues --  -10.24651 -10.22285 -10.22225 -10.21117 -10.20642
 Alpha  occ. eigenvalues --  -10.20612 -10.20500 -10.20268  -8.16154  -6.12645
 Alpha  occ. eigenvalues --   -6.12573  -6.12537  -1.13349  -1.11546  -1.01560
 Alpha  occ. eigenvalues --   -0.96414  -0.94451  -0.93022  -0.86439  -0.81443
 Alpha  occ. eigenvalues --   -0.76799  -0.76322  -0.72929  -0.71403  -0.67026
 Alpha  occ. eigenvalues --   -0.65503  -0.61949  -0.60698  -0.60093  -0.57104
 Alpha  occ. eigenvalues --   -0.54864  -0.52571  -0.51437  -0.50215  -0.49143
 Alpha  occ. eigenvalues --   -0.48797  -0.47881  -0.46483  -0.45898  -0.44893
 Alpha  occ. eigenvalues --   -0.44504  -0.43824  -0.42361  -0.41128  -0.39626
 Alpha  occ. eigenvalues --   -0.38800  -0.37719  -0.36630  -0.35926  -0.35687
 Alpha  occ. eigenvalues --   -0.34977  -0.34060  -0.32814  -0.31991  -0.31154
 Alpha  occ. eigenvalues --   -0.28913  -0.27015  -0.26721  -0.25975  -0.24230
 Alpha virt. eigenvalues --   -0.04729  -0.01799   0.01060   0.02204   0.05973
 Alpha virt. eigenvalues --    0.07604   0.08307   0.09102   0.09562   0.10857
 Alpha virt. eigenvalues --    0.11699   0.12888   0.14013   0.14495   0.15054

 Mulliken charges:
               1
     1  O   -0.537506
     2  S    1.292621
     3  N   -0.782237
     4  C    0.395864
     5  N   -0.338865
     6  N   -0.084684
     7  C    0.058022
     8  N   -0.368519
     9  C    0.330782
    10  C   -0.169664
    11  C   -0.148991
    12  C   -0.125057
    13  C   -0.148073
    14  C   -0.151337
    15  N   -0.514206
    16  C   -0.329339
    17  C   -0.343866
    18  O   -0.547833
    19  H    0.393760
    20  H    0.213651
    21  H    0.163811
    22  H    0.157859
    23  H    0.153273
    24  H    0.156899
    25  H    0.175948
    26  H    0.200294
    27  H    0.180889
    28  H    0.165572
    29  H    0.198657
    30  H    0.170795
    31  H    0.181483
 Sum of Mulliken charges =   0.00000

 Dipole moment (field-independent basis, Debye):
    X=              2.9581    Y=              0.6392    Z=              1.7924  Tot=              3.5173
 Quadrupole moment (field-independent basis, Debye-Ang):
   XX=            -87.4721   YY=           -115.3668   ZZ=           -110.7845
   XY=            -16.5654   XZ=             -8.0719   YZ=             -1.2382

 Normal termination of Gaussian 09 at Thu Aug  6 21:19:31 2020.
