 Gaussian 09, Revision D.01,

 -----------------
 #p b3lyp/6-31G(d)
 -----------------

 ----------------
 SM46.n.1.pdb.xyz
 ----------------
 Symbolic Z-matrix:
 Charge =  0 Multiplicity = 1

 SCF Done:  E(RB3LYP) =  -1211.16592064     A.U. after   15 cycles

 The electronic state is 1-A.
 Alpha  occ. eigenvalues --  -89.13166 -19.14650 -19.14619 -14.44331 -14.39707
 Alpha  occ. eigenvalues --  -14.38669 -14.38452 -14.36233 -10.26085 -10.25679
 Alpha  occ. eigenvalues --  -10.24238 -10.23171 -10.23112 -10.21577 -10.21202
 Alpha  occ. eigenvalues --  -10.20974 -10.20911 -10.20792  -8.15454  -6.11941
 Alpha  occ. eigenvalues --   -6.11883  -6.11815  -1.12312  -1.10836  -1.00197
 Alpha  occ. eigenvalues --   -0.96025  -0.94796  -0.92626  -0.86611  -0.80863
 Alpha  occ. eigenvalues --   -0.77000  -0.76587  -0.73662  -0.72006  -0.66855
 Alpha  occ. eigenvalues --   -0.65464  -0.62026  -0.60593  -0.59542  -0.57226
 Alpha  occ. eigenvalues --   -0.54349  -0.52373  -0.51008  -0.50170  -0.49034
 Alpha  occ. eigenvalues --   -0.48730  -0.48220  -0.46936  -0.45830  -0.45124
 Alpha  occ. eigenvalues --   -0.44282  -0.43891  -0.42535  -0.42011  -0.39841
 Alpha  occ. eigenvalues --   -0.39202  -0.38148  -0.37019  -0.36429  -0.34573
 Alpha  occ. eigenvalues --   -0.34254  -0.33721  -0.31943  -0.31111  -0.29939
 Alpha  occ. eigenvalues --   -0.28101  -0.27116  -0.26935  -0.26051  -0.23909
 Alpha virt. eigenvalues --   -0.04496  -0.02167   0.01573   0.02565   0.06010
 Alpha virt. eigenvalues --    0.06407   0.07710   0.08827   0.09506   0.10369
 Alpha virt. eigenvalues --    0.12057   0.12383   0.13423   0.13771   0.14419

 Mulliken charges:
               1
     1  O   -0.519851
     2  S    1.312646
     3  N   -0.796151
     4  C    0.409858
     5  N   -0.319057
     6  N   -0.070735
     7  C    0.040490
     8  N   -0.362686
     9  C    0.329931
    10  C   -0.163568
    11  C   -0.141420
    12  C   -0.118188
    13  C   -0.140755
    14  C   -0.142986
    15  N   -0.526719
    16  C   -0.325310
    17  C   -0.323122
    18  O   -0.529476
    19  H    0.377295
    20  H    0.186613
    21  H    0.146218
    22  H    0.142078
    23  H    0.140220
    24  H    0.145813
    25  H    0.178596
    26  H    0.210628
    27  H    0.162610
    28  H    0.166210
    29  H    0.194785
    30  H    0.173595
    31  H    0.162437
 Sum of Mulliken charges =   0.00000

 Dipole moment (field-independent basis, Debye):
    X=              3.1623    Y=              5.6389    Z=              3.2798  Tot=              7.2494
 Quadrupole moment (field-independent basis, Debye-Ang):
   XX=           -104.7512   YY=           -106.1439   ZZ=           -115.4077
   XY=             -5.4482   XZ=             -6.4933   YZ=             -3.6174

 Normal termination of Gaussian 09 at Thu Aug  6 21:08:55 2020.
 Gaussian 09:  AM64L-G09RevD.01 24-Apr-2013

 ----------------------------------------------------------------------
 #p b3lyp/6-31G(d) scrf=(iefpcm,read,solvent=Water) geom=allcheck guess
 =read
 ----------------------------------------------------------------------

 Structure from the checkpoint file:  "SM46.n.1.pdb.xyz.mst.n.w.chk"
 ----------------
 SM46.n.1.pdb.xyz
 ----------------
 Charge =  0 Multiplicity = 1

                         Standard orientation:
 ---------------------------------------------------------------------
 Center     Atomic      Atomic             Coordinates (Angstroms)
 Number     Number       Type             X           Y           Z
 ---------------------------------------------------------------------
      1          8           0       -2.492690   -0.268917   -1.743659
      2         16           0       -2.942984   -0.301365   -0.347532
      3          7           0       -1.887984   -1.168313    0.655300
      4          6           0       -0.511428   -1.158850    0.368520
      5          7           0        0.144022   -2.283370   -0.026663
      6          7           0        1.415070   -2.001240   -0.167391
      7          6           0        0.393275   -0.124752    0.471975
      8          7           0        1.576394   -0.689132    0.118072
      9          6           0        2.860904   -0.077866    0.036891
     10          6           0        2.956533    1.301291   -0.160495
     11          6           0        4.218232    1.891378   -0.228866
     12          6           0        5.370019    1.110535   -0.114181
     13          6           0        5.257498   -0.268711    0.074448
     14          6           0        4.004642   -0.870703    0.158087
     15          7           0       -2.696648    1.237545    0.264980
     16          6           0       -3.041167    2.328860   -0.663016
     17          6           0       -3.206341    1.438794    1.631714
     18          8           0       -4.268357   -0.858974   -0.043388
     19          1           0       -2.259548   -2.109315    0.793535
     20          1           0        0.292195    0.903996    0.768447
     21          1           0        2.062191    1.902773   -0.270113
     22          1           0        4.296362    2.961744   -0.380354
     23          1           0        6.349220    1.573970   -0.172514
     24          1           0        6.147634   -0.879760    0.166926
     25          1           0        3.903676   -1.936330    0.317260
     26          1           0       -2.595212    2.133720   -1.635428
     27          1           0       -2.614579    3.245058   -0.250854
     28          1           0       -4.124230    2.461633   -0.771122
     29          1           0       -2.872074    0.619867    2.267603
     30          1           0       -4.299349    1.507720    1.659116
     31          1           0       -2.779143    2.371611    2.003819
 ---------------------------------------------------------------------

 Error termination via Lnk1e in /prod/apps/gaussian/g09d1/l301.exe at Thu Aug  6 21:08:55 2020.
