 Gaussian 09, Revision D.01,

 -----------------
 #p b3lyp/6-31G(d)
 -----------------

 ----------------
 SM46.n.8.pdb.xyz
 ----------------
 Symbolic Z-matrix:
 Charge =  0 Multiplicity = 1

 SCF Done:  E(RB3LYP) =  -1211.16714205     A.U. after   15 cycles
 Normal termination of Gaussian 09 at Thu Aug  6 21:17:22 2020.
 Gaussian 09:  AM64L-G09RevD.01 24-Apr-2013

 ----------------------------------------------------------------------
 #p b3lyp/6-31G(d) scrf=(iefpcm,read,solvent=Water) geom=allcheck guess
 =read
 ----------------------------------------------------------------------

 Structure from the checkpoint file:  "SM46.n.8.pdb.xyz.mst.n.w.chk"
 ----------------
 SM46.n.8.pdb.xyz
 ----------------
 Charge =  0 Multiplicity = 1

                         Standard orientation:
 ---------------------------------------------------------------------
 Center     Atomic      Atomic             Coordinates (Angstroms)
 Number     Number       Type             X           Y           Z
 ---------------------------------------------------------------------
      1          8           0       -4.100609   -0.596769   -1.276898
      2         16           0       -2.887612   -0.626414   -0.460827
      3          7           0       -1.867082    0.508650   -1.209190
      4          6           0       -0.547924    0.693712   -0.763359
      5          7           0       -0.107204    1.894290   -0.298914
      6          7           0        1.167698    1.795847   -0.018478
      7          6           0        0.505078   -0.197742   -0.768035
      8          7           0        1.547428    0.526858   -0.286754
      9          6           0        2.890125    0.107318   -0.068483
     10          6           0        3.167054   -1.246767    0.128810
     11          6           0        4.485743   -1.648382    0.334381
     12          6           0        5.516129   -0.705116    0.354316
     13          6           0        5.221961    0.646118    0.162829
     14          6           0        3.910031    1.060738   -0.055901
     15          7           0       -3.339016   -0.171055    1.080444
     16          6           0       -2.324726   -0.287433    2.138550
     17          6           0       -4.178620    1.032759    1.171973
     18          8           0       -2.091831   -1.846291   -0.326435
     19          1           0       -2.362653    1.387069   -1.377783
     20          1           0        0.586226   -1.225645   -1.072059
     21          1           0        2.363672   -1.973751    0.133135
     22          1           0        4.704304   -2.699073    0.487408
     23          1           0        6.539178   -1.021328    0.518593
     24          1           0        6.016810    1.383811    0.173217
     25          1           0        3.669743    2.103026   -0.220034
     26          1           0       -1.760977   -1.206627    1.998339
     27          1           0       -2.853749   -0.337659    3.092062
     28          1           0       -1.641764    0.569480    2.157935
     29          1           0       -4.943515    1.000233    0.398305
     30          1           0       -3.593528    1.955903    1.080404
     31          1           0       -4.664305    1.018317    2.150131
 ---------------------------------------------------------------------

 SCF Done:  E(RB3LYP) =  -1211.18766586     A.U. after   11 cycles

 The electronic state is 1-A.
 Alpha  occ. eigenvalues --  -89.14409 -19.16263 -19.16093 -14.44866 -14.40584
 Alpha  occ. eigenvalues --  -14.38840 -14.38513 -14.37328 -10.26747 -10.25223
 Alpha  occ. eigenvalues --  -10.24431 -10.22350 -10.22253 -10.20795 -10.20493
 Alpha  occ. eigenvalues --  -10.20305 -10.20223 -10.19983  -8.16644  -6.13140
 Alpha  occ. eigenvalues --   -6.13067  -6.13027  -1.13910  -1.11601  -1.02335
 Alpha  occ. eigenvalues --   -0.96265  -0.94757  -0.92966  -0.86213  -0.81274
 Alpha  occ. eigenvalues --   -0.76600  -0.76032  -0.72991  -0.71606  -0.67033
 Alpha  occ. eigenvalues --   -0.65772  -0.61891  -0.60588  -0.59861  -0.56747
 Alpha  occ. eigenvalues --   -0.55003  -0.52233  -0.51729  -0.50034  -0.49227
 Alpha  occ. eigenvalues --   -0.48798  -0.47942  -0.46853  -0.45634  -0.44907
 Alpha  occ. eigenvalues --   -0.44314  -0.43465  -0.42161  -0.41064  -0.39201
 Alpha  occ. eigenvalues --   -0.39185  -0.37386  -0.37002  -0.36243  -0.36136
 Alpha  occ. eigenvalues --   -0.35223  -0.33693  -0.33112  -0.32391  -0.32024
 Alpha  occ. eigenvalues --   -0.29513  -0.28218  -0.26571  -0.25797  -0.23643
 Alpha virt. eigenvalues --   -0.04631  -0.01577   0.00963   0.01995   0.06084
 Alpha virt. eigenvalues --    0.07889   0.08757   0.08931   0.09606   0.11012
 Alpha virt. eigenvalues --    0.11817   0.12677   0.14074   0.14962   0.15037

 Mulliken charges:
               1
     1  O   -0.569595
     2  S    1.298129
     3  N   -0.774911
     4  C    0.387683
     5  N   -0.370511
     6  N   -0.106819
     7  C    0.056810
     8  N   -0.354043
     9  C    0.331915
    10  C   -0.171145
    11  C   -0.156709
    12  C   -0.131882
    13  C   -0.155059
    14  C   -0.156079
    15  N   -0.505271
    16  C   -0.332943
    17  C   -0.336164
    18  O   -0.573908
    19  H    0.418229
    20  H    0.225007
    21  H    0.174091
    22  H    0.165563
    23  H    0.160986
    24  H    0.164449
    25  H    0.175619
    26  H    0.200394
    27  H    0.192238
    28  H    0.174499
    29  H    0.200671
    30  H    0.174072
    31  H    0.194686
 Sum of Mulliken charges =   0.00000

 Dipole moment (field-independent basis, Debye):
    X=              4.1802    Y=              0.7402    Z=              3.1747  Tot=              5.3010
 Quadrupole moment (field-independent basis, Debye-Ang):
   XX=            -97.0994   YY=           -115.6765   ZZ=           -109.7174
   XY=            -20.3500   XZ=            -12.7662   YZ=             -3.6150

 Normal termination of Gaussian 09 at Thu Aug  6 21:20:02 2020.
