 Gaussian 09, Revision D.01,

 -----------------
 #p b3lyp/6-31G(d)
 -----------------

 -----------------
 SM46.n.10.pdb.xyz
 -----------------
 Symbolic Z-matrix:
 Charge =  0 Multiplicity = 1

 SCF Done:  E(RB3LYP) =  -1211.16240787     A.U. after   15 cycles
 Normal termination of Gaussian 09 at Thu Aug  6 21:08:58 2020.
 Gaussian 09:  AM64L-G09RevD.01 24-Apr-2013

 ----------------------------------------------------------------------
 #p b3lyp/6-31G(d) scrf=(iefpcm,read,solvent=Water) geom=allcheck guess
 =read
 ----------------------------------------------------------------------

 Structure from the checkpoint file:  "SM46.n.10.pdb.xyz.mst.n.w.chk"
 -----------------
 SM46.n.10.pdb.xyz
 -----------------
 Charge =  0 Multiplicity = 1

                         Standard orientation:
 ---------------------------------------------------------------------
 Center     Atomic      Atomic             Coordinates (Angstroms)
 Number     Number       Type             X           Y           Z
 ---------------------------------------------------------------------
      1          8           0        2.215568   -0.768050    1.669589
      2         16           0        2.841366   -0.713037    0.342721
      3          7           0        1.710126   -0.858700   -0.910524
      4          6           0        0.429461   -0.293536   -0.735751
      5          7           0        0.187889    1.017908   -1.009569
      6          7           0       -1.075847    1.266798   -0.793975
      7          6           0       -0.746713   -0.888409   -0.330824
      8          7           0       -1.660039    0.111533   -0.389760
      9          6           0       -3.053742    0.064190   -0.095405
     10          6           0       -3.742271   -1.145238   -0.208118
     11          6           0       -5.103463   -1.182863    0.091295
     12          6           0       -5.771161   -0.022318    0.485628
     13          6           0       -5.070652    1.181716    0.586662
     14          6           0       -3.707539    1.232012    0.303147
     15          7           0        3.322676    0.867979    0.108142
     16          6           0        3.919968    1.514473    1.287389
     17          6           0        4.057501    1.108138   -1.143585
     18          8           0        3.874365   -1.705345    0.012776
     19          1           0        1.699421   -1.829634   -1.224631
     20          1           0       -0.983288   -1.889644   -0.014063
     21          1           0       -3.225954   -2.039724   -0.536057
     22          1           0       -5.640636   -2.120525    0.005678
     23          1           0       -6.830656   -0.055370    0.713687
     24          1           0       -5.582106    2.085643    0.896048
     25          1           0       -3.150865    2.155583    0.390532
     26          1           0        3.290063    1.338496    2.156764
     27          1           0        3.953892    2.585538    1.082678
     28          1           0        4.937968    1.160363    1.489714
     29          1           0        3.518148    0.649507   -1.971770
     30          1           0        5.081251    0.719303   -1.105053
     31          1           0        4.089471    2.188594   -1.298809
 ---------------------------------------------------------------------

 SCF Done:  E(RB3LYP) =  -1211.18578980     A.U. after   11 cycles

 The electronic state is 1-A.
 Alpha  occ. eigenvalues --  -89.13986 -19.15893 -19.15794 -14.44702 -14.40464
 Alpha  occ. eigenvalues --  -14.38491 -14.37971 -14.37140 -10.26335 -10.25199
 Alpha  occ. eigenvalues --  -10.24582 -10.21989 -10.21912 -10.20777 -10.20487
 Alpha  occ. eigenvalues --  -10.20283 -10.20207 -10.19975  -8.16262  -6.12744
 Alpha  occ. eigenvalues --   -6.12685  -6.12643  -1.13301  -1.11376  -1.01465
 Alpha  occ. eigenvalues --   -0.96046  -0.94471  -0.92891  -0.86203  -0.81113
 Alpha  occ. eigenvalues --   -0.76514  -0.76012  -0.72695  -0.71644  -0.66842
 Alpha  occ. eigenvalues --   -0.65345  -0.61625  -0.60767  -0.58363  -0.56449
 Alpha  occ. eigenvalues --   -0.53929  -0.53249  -0.51432  -0.49829  -0.49092
 Alpha  occ. eigenvalues --   -0.48574  -0.48134  -0.46114  -0.45510  -0.44784
 Alpha  occ. eigenvalues --   -0.44540  -0.43437  -0.41696  -0.40752  -0.38909
 Alpha  occ. eigenvalues --   -0.38745  -0.37484  -0.36438  -0.36145  -0.35543
 Alpha  occ. eigenvalues --   -0.35378  -0.34141  -0.33023  -0.31833  -0.30782
 Alpha  occ. eigenvalues --   -0.29099  -0.26893  -0.26516  -0.26100  -0.24407
 Alpha virt. eigenvalues --   -0.04485  -0.01558   0.01126   0.02053   0.06216
 Alpha virt. eigenvalues --    0.07334   0.08941   0.09195   0.09483   0.11693
 Alpha virt. eigenvalues --    0.12188   0.13373   0.14214   0.14951   0.15074

 Mulliken charges:
               1
     1  O   -0.566072
     2  S    1.309260
     3  N   -0.803145
     4  C    0.383844
     5  N   -0.343570
     6  N   -0.107479
     7  C    0.054624
     8  N   -0.353548
     9  C    0.328100
    10  C   -0.170477
    11  C   -0.156222
    12  C   -0.131953
    13  C   -0.155036
    14  C   -0.155252
    15  N   -0.516182
    16  C   -0.326125
    17  C   -0.324977
    18  O   -0.569175
    19  H    0.423623
    20  H    0.228415
    21  H    0.174793
    22  H    0.165313
    23  H    0.160767
    24  H    0.164520
    25  H    0.175108
    26  H    0.197965
    27  H    0.187831
    28  H    0.170978
    29  H    0.195522
    30  H    0.171701
    31  H    0.186849
 Sum of Mulliken charges =   0.00000

 Dipole moment (field-independent basis, Debye):
    X=             -4.3735    Y=             -1.4440    Z=             -1.0177  Tot=              4.7168
 Quadrupole moment (field-independent basis, Debye-Ang):
   XX=            -88.1201   YY=           -104.7637   ZZ=           -115.9083
   XY=             19.3547   XZ=             -7.5360   YZ=             10.4109

 Normal termination of Gaussian 09 at Thu Aug  6 21:11:51 2020.
