 Gaussian 16, Revision B.01,

 ----------------------------------------------------------------------
 #p b3lyp/6-31G(d) opt freq NoSymm scf=(MaxCycle=2000,NoVarAcc,NoIncFoc
 k) scrf=(iefpcm,read,solvent=water)
 ----------------------------------------------------------------------

 --------------------
 SM36_m0.n.13.pdb.xyz
 --------------------
 Symbolic Z-matrix:
 Charge =  0 Multiplicity = 1

 SCF Done:  E(RB3LYP) =  -1735.93668761     A.U. after   13 cycles
 SCF Done:  E(RB3LYP) =  -1735.93602307     A.U. after   11 cycles
 SCF Done:  E(RB3LYP) =  -1735.93677963     A.U. after   10 cycles
 SCF Done:  E(RB3LYP) =  -1735.93677517     A.U. after   10 cycles
 SCF Done:  E(RB3LYP) =  -1735.93661193     A.U. after    9 cycles
 SCF Done:  E(RB3LYP) =  -1735.93677568     A.U. after   10 cycles
 SCF Done:  E(RB3LYP) =  -1735.93678024     A.U. after    9 cycles
 SCF Done:  E(RB3LYP) =  -1735.93665318     A.U. after   10 cycles
 SCF Done:  E(RB3LYP) =  -1735.93669899     A.U. after    9 cycles
 SCF Done:  E(RB3LYP) =  -1735.93678057     A.U. after   10 cycles
 SCF Done:  E(RB3LYP) =  -1735.93668647     A.U. after   10 cycles
 SCF Done:  E(RB3LYP) =  -1735.93669093     A.U. after    7 cycles
 SCF Done:  E(RB3LYP) =  -1735.93677804     A.U. after   10 cycles
 SCF Done:  E(RB3LYP) =  -1735.93678258     A.U. after    9 cycles
 SCF Done:  E(RB3LYP) =  -1735.93669213     A.U. after   10 cycles
 Optimization completed.
    -- Stationary point found.
 Normal termination of Gaussian 16 at Mon Sep 21 06:15:32 2020.

 --------------------------------------------------------------------
 #P Geom=AllCheck Guess=TCheck SCRF=Check GenChk RB3LYP/6-31G(d) Freq
 --------------------------------------------------------------------

 Structure from the checkpoint file:  "SM36_m0.n.13.pdb.xyz.mst.n.w.chk"
 --------------------
 SM36_m0.n.13.pdb.xyz
 --------------------
 Charge =  0 Multiplicity = 1

 SCF Done:  E(RB3LYP) =  -1735.93669213     A.U. after    1 cycles

  Exact polarizability: 316.504 -23.362 321.804  55.360  29.938 239.838
 Approx polarizability: 358.196 -17.916 366.052  59.559  40.891 283.644

                      1                      2                      3
                      A                      A                      A
 Frequencies --     17.9149                28.8980                31.8708
 Red. masses --      5.8963                 5.2827                 4.3838
 Frc consts  --      0.0011                 0.0026                 0.0026
 IR Inten    --      1.0981                 0.4722                 1.0573

                      4                      5                      6
                      A                      A                      A
 Frequencies --     38.1277                44.8129                50.9447
 Red. masses --      4.8702                 4.8223                 6.4247
 Frc consts  --      0.0042                 0.0057                 0.0098
 IR Inten    --      0.6363                 2.1527                 0.1876

                      7                      8                      9
                      A                      A                      A
 Frequencies --     82.8851               108.6922               132.6756
 Red. masses --      5.1357                 7.5433                 4.5515
 Frc consts  --      0.0208                 0.0525                 0.0472
 IR Inten    --     20.6427                10.4009                 0.3146

                     10                     11                     12
                      A                      A                      A
 Frequencies --    146.3135               161.8910               179.6518
 Red. masses --      3.7808                 6.2873                 4.1432
 Frc consts  --      0.0477                 0.0971                 0.0788
 IR Inten    --      4.7263                 0.9857                 3.4725

                     13                     14                     15
                      A                      A                      A
 Frequencies --    200.6451               235.6385               245.9969
 Red. masses --      5.5308                 6.8464                 5.6852
 Frc consts  --      0.1312                 0.2240                 0.2027
 IR Inten    --      7.2716                10.7866                 8.5178

                     16                     17                     18
                      A                      A                      A
 Frequencies --    289.8417               299.5314               310.7933
 Red. masses --      3.2333                 4.6356                 5.0039
 Frc consts  --      0.1600                 0.2450                 0.2848
 IR Inten    --      1.8974                10.8463                 2.6035

                     19                     20                     21
                      A                      A                      A
 Frequencies --    331.0545               357.3597               369.4491
 Red. masses --      2.2616                 3.0544                 3.5049
 Frc consts  --      0.1460                 0.2298                 0.2819
 IR Inten    --      8.3333                 8.8400                11.0168

                     22                     23                     24
                      A                      A                      A
 Frequencies --    382.8268               412.0691               419.0825
 Red. masses --      4.0580                 2.9473                 3.0121
 Frc consts  --      0.3504                 0.2949                 0.3117
 IR Inten    --     12.4622                 0.5745                 0.1216

                     25                     26                     27
                      A                      A                      A
 Frequencies --    428.7089               455.5655               474.7099
 Red. masses --      3.4019                 3.1304                 4.9701
 Frc consts  --      0.3684                 0.3828                 0.6599
 IR Inten    --      4.7502                 8.3857                 6.4954

                     28                     29                     30
                      A                      A                      A
 Frequencies --    494.2605               525.8742               545.2807
 Red. masses --      3.8254                 2.4403                 4.0093
 Frc consts  --      0.5506                 0.3976                 0.7024
 IR Inten    --     10.2869               105.4744               116.3008

                     31                     32                     33
                      A                      A                      A
 Frequencies --    566.4518               574.6044               614.1106
 Red. masses --      5.6888                 3.8270                 4.0179
 Frc consts  --      1.0755                 0.7445                 0.8928
 IR Inten    --    144.8483                56.1792               118.1711

                     34                     35                     36
                      A                      A                      A
 Frequencies --    625.4257               633.9654               658.7090
 Red. masses --      6.3572                 6.3564                 4.3418
 Frc consts  --      1.4651                 1.5052                 1.1100
 IR Inten    --      2.7859                 1.2744                33.3348

                     37                     38                     39
                      A                      A                      A
 Frequencies --    698.3352               704.5964               716.1660
 Red. masses --      2.4628                 3.2657                 5.8593
 Frc consts  --      0.7076                 0.9552                 1.7706
 IR Inten    --     44.9151                 8.1263                27.2388

                     40                     41                     42
                      A                      A                      A
 Frequencies --    719.8640               760.4594               767.8527
 Red. masses --      1.9991                 1.8501                 1.5305
 Frc consts  --      0.6104                 0.6304                 0.5317
 IR Inten    --     50.4337                14.1048                50.9373

                     43                     44                     45
                      A                      A                      A
 Frequencies --    780.5009               791.3506               806.1266
 Red. masses --      2.3625                 3.4596                 2.0521
 Frc consts  --      0.8480                 1.2765                 0.7857
 IR Inten    --     11.0441                 6.5726                 4.0425

                     46                     47                     48
                      A                      A                      A
 Frequencies --    855.4983               860.2119               871.4037
 Red. masses --      2.1282                 1.2798                 1.2505
 Frc consts  --      0.9177                 0.5580                 0.5595
 IR Inten    --     71.3425                 3.2278                 0.4211

                     49                     50                     51
                      A                      A                      A
 Frequencies --    898.8639               917.4880               925.8760
 Red. masses --      2.9644                 2.0023                 1.6928
 Frc consts  --      1.4111                 0.9931                 0.8550
 IR Inten    --    178.1953                11.1491               133.6907

                     52                     53                     54
                      A                      A                      A
 Frequencies --    947.5490               955.2226               984.9944
 Red. masses --      1.3164                 1.7671                 1.3535
 Frc consts  --      0.6964                 0.9500                 0.7737
 IR Inten    --      1.8811                45.2492                 1.6441

                     55                     56                     57
                      A                      A                      A
 Frequencies --    989.7169              1001.2996              1005.5687
 Red. masses --      1.3574                 2.5236                 1.3235
 Frc consts  --      0.7834                 1.4907                 0.7885
 IR Inten    --      0.4341                30.4806                 3.8747

                     58                     59                     60
                      A                      A                      A
 Frequencies --   1013.6739              1016.7841              1019.7054
 Red. masses --      6.3241                 4.9018                 1.2857
 Frc consts  --      3.8287                 2.9858                 0.7877
 IR Inten    --      6.9267                 1.1070                 0.1842

                     61                     62                     63
                      A                      A                      A
 Frequencies --   1032.0351              1047.1616              1056.2344
 Red. masses --      3.7501                 3.0752                 2.0368
 Frc consts  --      2.3533                 1.9868                 1.3388
 IR Inten    --     74.8304                19.5268                83.6719

                     64                     65                     66
                      A                      A                      A
 Frequencies --   1061.5389              1068.0294              1077.6181
 Red. masses --      1.4875                 1.7702                 3.8727
 Frc consts  --      0.9876                 1.1897                 2.6497
 IR Inten    --     39.9862               146.8448                77.7524

                     67                     68                     69
                      A                      A                      A
 Frequencies --   1091.4555              1108.9456              1109.6430
 Red. masses --      1.8296                 2.5822                 1.7177
 Frc consts  --      1.2842                 1.8709                 1.2461
 IR Inten    --      6.9281                16.6793                10.9090

                     70                     71                     72
                      A                      A                      A
 Frequencies --   1122.6532              1128.2922              1184.8714
 Red. masses --      2.2154                 3.2215                 1.0909
 Frc consts  --      1.6451                 2.4163                 0.9023
 IR Inten    --     74.4022               165.8592                 0.0359

                     73                     74                     75
                      A                      A                      A
 Frequencies --   1193.9323              1196.7361              1206.2416
 Red. masses --      1.0964                 1.2956                 1.1634
 Frc consts  --      0.9209                 1.0933                 0.9974
 IR Inten    --      0.3934                 1.8171                 0.5926

                     76                     77                     78
                      A                      A                      A
 Frequencies --   1207.7587              1224.1410              1229.0749
 Red. masses --      1.1329                 1.5323                 1.9978
 Frc consts  --      0.9736                 1.3528                 1.7781
 IR Inten    --      0.6135                 2.9378                 8.6504

                     79                     80                     81
                      A                      A                      A
 Frequencies --   1246.3862              1258.3096              1278.9459
 Red. masses --      2.6454                 1.7657                 3.2860
 Frc consts  --      2.4213                 1.6472                 3.1668
 IR Inten    --     45.5987               154.3252               219.1007

                     82                     83                     84
                      A                      A                      A
 Frequencies --   1296.7997              1342.2315              1352.3923
 Red. masses --      1.3836                 1.5021                 2.5396
 Frc consts  --      1.3709                 1.5944                 2.7367
 IR Inten    --     23.6930                 1.8509                 3.7673

                     85                     86                     87
                      A                      A                      A
 Frequencies --   1362.3679              1363.8347              1380.4124
 Red. masses --      4.7358                 1.7250                 1.4407
 Frc consts  --      5.1788                 1.8905                 1.6175
 IR Inten    --      4.1150                 0.3995                18.8851

                     88                     89                     90
                      A                      A                      A
 Frequencies --   1409.5714              1446.3058              1459.5625
 Red. masses --      1.4225                 1.1006                 1.1819
 Frc consts  --      1.6652                 1.3564                 1.4835
 IR Inten    --      8.2618                28.4732                32.1431

                     91                     92                     93
                      A                      A                      A
 Frequencies --   1491.3105              1494.8688              1498.8219
 Red. masses --      1.8213                 1.2725                 2.0533
 Frc consts  --      2.3865                 1.6754                 2.7176
 IR Inten    --     29.0147                12.9466                 7.0098

                     94                     95                     96
                      A                      A                      A
 Frequencies --   1505.6652              1521.4969              1523.4385
 Red. masses --      1.0931                 1.1109                 2.0512
 Frc consts  --      1.4600                 1.5152                 2.8048
 IR Inten    --     10.1975                10.8042                 5.2142

                     97                     98                     99
                      A                      A                      A
 Frequencies --   1543.2195              1639.9513              1642.3076
 Red. masses --      2.1753                 5.5159                 5.8435
 Frc consts  --      3.0523                 8.7404                 9.2861
 IR Inten    --     21.8945                 1.6019                 0.0459

                    100                    101                    102
                      A                      A                      A
 Frequencies --   1643.5243              1661.6902              3066.0794
 Red. masses --      5.4390                 5.5962                 1.0644
 Frc consts  --      8.6561                 9.1042                 5.8957
 IR Inten    --      2.5668                10.4668                29.4749

                    103                    104                    105
                      A                      A                      A
 Frequencies --   3083.1473              3116.8099              3121.0092
 Red. masses --      1.0629                 1.0994                 1.0587
 Frc consts  --      5.9527                 6.2923                 6.0757
 IR Inten    --     51.6000                 6.7046                 5.4421

                    106                    107                    108
                      A                      A                      A
 Frequencies --   3130.4561              3134.9844              3189.5078
 Red. masses --      1.0582                 1.1001                 1.1106
 Frc consts  --      6.1097                 6.3700                 6.6567
 IR Inten    --     11.6830                26.0813                 3.1287

                    109                    110                    111
                      A                      A                      A
 Frequencies --   3190.2209              3196.7961              3200.7071
 Red. masses --      1.0865                 1.0877                 1.1101
 Frc consts  --      6.5148                 6.5489                 6.7006
 IR Inten    --     14.8750                 0.1798                 2.2279

                    112                    113                    114
                      A                      A                      A
 Frequencies --   3204.2148              3211.4148              3214.2298
 Red. masses --      1.0907                 1.0939                 1.0868
 Frc consts  --      6.5977                 6.6469                 6.6155
 IR Inten    --     15.0185                58.4708                 1.2451

                    115                    116                    117
                      A                      A                      A
 Frequencies --   3223.1538              3225.0655              3232.2805
 Red. masses --      1.0977                 1.0896                 1.0936
 Frc consts  --      6.7190                 6.6773                 6.7316
 IR Inten    --     40.1257                15.7709                23.7039

                    118                    119                    120
                      A                      A                      A
 Frequencies --   3241.2791              3249.4517              3515.7978
 Red. masses --      1.0953                 1.0934                 1.0758
 Frc consts  --      6.7797                 6.8025                 7.8350
 IR Inten    --     11.2344                 6.3284               123.6127

 - Thermochemistry -
 -------------------
 Temperature   298.150 Kelvin.  Pressure   1.00000 Atm.
 Atom     1 has atomic number  8 and mass  15.99491

 Molecular mass:   349.08064 amu.
 Principal axes and moments of inertia in atomic units:
                           1         2         3
     Eigenvalues --  5956.02753********************
           X            0.99989   0.00166   0.01485
           Y           -0.00190   0.99987   0.01574
           Z           -0.01482  -0.01576   0.99977
 This molecule is an asymmetric top.
 Rotational symmetry number  1.
 Warning -- assumption of classical behavior for rotation
           may cause significant error
 Rotational temperatures (Kelvin)      0.01454     0.00800     0.00617
 Rotational constants (GHZ):           0.30301     0.16677     0.12861
 Zero-point vibrational energy     878909.1 (Joules/Mol)
                                  210.06431 (Kcal/Mol)
 Warning -- explicit consideration of  33 degrees of freedom as
           vibrations may cause significant error
 Vibrational temperatures:     25.78    41.58    45.86    54.86    64.48
          (Kelvin)             73.30   119.25   156.38   190.89   210.51
                              232.93   258.48   288.68   339.03   353.93
                              417.02   430.96   447.16   476.31   514.16
                              531.55   550.80   592.88   602.97   616.82
                              655.46   683.00   711.13   756.62   784.54
                              815.00   826.73   883.57   899.85   912.13
                              947.74  1004.75  1013.76  1030.40  1035.72
                             1094.13  1104.77  1122.97  1138.58  1159.84
                             1230.87  1237.65  1253.76  1293.26  1320.06
                             1332.13  1363.31  1374.35  1417.19  1423.98
                             1440.65  1446.79  1458.45  1462.93  1467.13
                             1484.87  1506.63  1519.69  1527.32  1536.66
                             1550.45  1570.36  1595.53  1596.53  1615.25
                             1623.36  1704.77  1717.80  1721.84  1735.51
                             1737.70  1761.27  1768.36  1793.27  1810.43
                             1840.12  1865.81  1931.17  1945.79  1960.14
                             1962.25  1986.11  2028.06  2080.91  2099.98
                             2145.66  2150.78  2156.47  2166.32  2189.09
                             2191.89  2220.35  2359.52  2362.91  2364.66
                             2390.80  4411.40  4435.96  4484.39  4490.44
                             4504.03  4510.54  4588.99  4590.02  4599.48
                             4605.10  4610.15  4620.51  4624.56  4637.40
                             4640.15  4650.53  4663.48  4675.24  5058.45

 Zero-point correction=                           0.334759 (Hartree/Particle)
 Thermal correction to Energy=                    0.356069
 Thermal correction to Enthalpy=                  0.357013
 Thermal correction to Gibbs Free Energy=         0.281768
 Sum of electronic and zero-point Energies=          -1735.601933
 Sum of electronic and thermal Energies=             -1735.580624
 Sum of electronic and thermal Enthalpies=           -1735.579679
 Sum of electronic and thermal Free Energies=        -1735.654924

                     E (Thermal)             CV                S
                      KCal/Mol        Cal/Mol-Kelvin    Cal/Mol-Kelvin
 Total                  223.436             82.682            158.365
 Electronic               0.000              0.000              0.000
 Translational            0.889              2.981             43.444
 Rotational               0.889              2.981             35.157
 Vibrational            221.659             76.721             79.763
 Vibration     1          0.593              1.986              6.853
 Vibration     2          0.593              1.984              5.904
 Vibration     3          0.594              1.983              5.709
 Vibration     4          0.594              1.982              5.354
 Vibration     5          0.595              1.979              5.034
 Vibration     6          0.595              1.977              4.780
 Vibration     7          0.600              1.961              3.821
 Vibration     8          0.606              1.942              3.292
 Vibration     9          0.613              1.921              2.907
 Vibration    10          0.617              1.907              2.720
 Vibration    11          0.622              1.889              2.528
 Vibration    12          0.629              1.867              2.332
 Vibration    13          0.638              1.839              2.127
 Vibration    14          0.655              1.786              1.836
 Vibration    15          0.660              1.769              1.759
 Vibration    16          0.686              1.693              1.475
 Vibration    17          0.692              1.675              1.420
 Vibration    18          0.700              1.653              1.358
 Vibration    19          0.713              1.613              1.255
 Vibration    20          0.733              1.560              1.134
 Vibration    21          0.742              1.535              1.082
 Vibration    22          0.752              1.507              1.028
 Vibration    23          0.776              1.444              0.919
 Vibration    24          0.782              1.429              0.895
 Vibration    25          0.790              1.408              0.863
 Vibration    26          0.814              1.349              0.779
 Vibration    27          0.831              1.306              0.724
 Vibration    28          0.850              1.263              0.673
 Vibration    29          0.881              1.193              0.596
 Vibration    30          0.900              1.150              0.554
 Vibration    31          0.922              1.104              0.511
 Vibration    32          0.931              1.086              0.495
 Vibration    33          0.974              1.002              0.426

 Optimization completed.
    -- Stationary point found.
 Normal termination of Gaussian 16 at Mon Sep 21 06:37:50 2020.

 ----------------------------------------------------------------------
 #p b3lyp/6-31G(d) scrf=(iefpcm,read,solvent=water) geom=allcheck guess
 =read
 ----------------------------------------------------------------------

 Structure from the checkpoint file:  "SM36_m0.n.13.pdb.xyz.mst.n.w.chk"
 --------------------
 SM36_m0.n.13.pdb.xyz
 --------------------
 Charge =  0 Multiplicity = 1

 SCF Done:  E(RB3LYP) =  -1735.93669085     A.U. after    5 cycles
 Normal termination of Gaussian 16 at Mon Sep 21 06:38:37 2020.

 -----------------------------
 #p B3LYP/6-31G* geom=allcheck
 -----------------------------

 Structure from the checkpoint file:  "SM36_m0.n.13.pdb.xyz.mst.n.w.chk"
 --------------------
 SM36_m0.n.13.pdb.xyz
 --------------------
 Charge =  0 Multiplicity = 1

 SCF Done:  E(RB3LYP) =  -1735.91008858     A.U. after   15 cycles
 Normal termination of Gaussian 16 at Mon Sep 21 06:39:52 2020.
 Gaussian 16:  ES64L-G16RevB.01 20-Dec-2017

 ----------------------------------------------------------------------
 #p mp2/aug-cc-pVDZ scf=(MaxCycle=2000,NoVarAcc,NoIncFock) maxdisk=120G
 B geom=allcheck
 ----------------------------------------------------------------------

 Structure from the checkpoint file:  "SM36_m0.n.13.pdb.xyz.mst.n.w.chk"
 --------------------
 SM36_m0.n.13.pdb.xyz
 --------------------
 Charge =  0 Multiplicity = 1

                         Standard orientation:
 ---------------------------------------------------------------------
 Center     Atomic      Atomic             Coordinates (Angstroms)
 Number     Number       Type             X           Y           Z
 ---------------------------------------------------------------------
      1          8           0       -2.740247   -1.721213    2.013405
      2         16           0       -1.883269   -0.794800    1.251079
      3          7           0       -1.021280   -1.781662    0.196657
      4          6           0        0.333747   -1.423121   -0.275418
      5          6           0        0.880243   -2.610845   -1.114796
      6         16           0        2.430793   -2.787219   -0.090578
      7          8           0        3.612540   -2.164965   -0.833693
      8          6           0        1.449811   -1.480340    0.812540
      9          6           0        0.270200   -0.114439   -1.084944
     10          6           0        1.631805    0.410662   -1.598676
     11          6           0        2.302258    1.433602   -0.699951
     12          6           0        3.612241    1.236752   -0.242750
     13          6           0        4.246217    2.194802    0.552996
     14          6           0        3.577458    3.368056    0.905486
     15          6           0        2.269415    3.574435    0.458069
     16          6           0        1.640871    2.615880   -0.336235
     17          6           0       -2.922530    0.202804    0.187584
     18          6           0       -3.705634   -0.414861   -0.791220
     19          6           0       -4.562483    0.369776   -1.557935
     20          6           0       -4.637699    1.748883   -1.340853
     21          6           0       -3.853949    2.350766   -0.354363
     22          6           0       -2.989309    1.576953    0.421185
     23          8           0       -0.993367    0.120350    1.988239
     24          1           0       -1.076857   -2.731141    0.569975
     25          1           0        1.127601   -2.381164   -2.152179
     26          1           0        0.282711   -3.522219   -1.066504
     27          1           0        2.037325   -0.573877    0.955828
     28          1           0        1.121371   -1.872786    1.774782
     29          1           0       -0.197802    0.663426   -0.477402
     30          1           0       -0.398759   -0.303090   -1.930156
     31          1           0        1.458275    0.871694   -2.576837
     32          1           0        2.324747   -0.419663   -1.764292
     33          1           0        4.122713    0.314933   -0.505560
     34          1           0        5.260613    2.021959    0.898185
     35          1           0        4.067296    4.113070    1.523554
     36          1           0        1.739943    4.483607    0.726155
     37          1           0        0.625172    2.788285   -0.681172
     38          1           0       -3.635928   -1.482957   -0.958241
     39          1           0       -5.170053   -0.094916   -2.326097
     40          1           0       -5.306955    2.353404   -1.943469
     41          1           0       -3.912045    3.420508   -0.187038
     42          1           0       -2.368168    2.022894    1.187950
 ---------------------------------------------------------------------

 SCF Done:  E(RHF) =  -1728.86157674     A.U. after   17 cycles
 E2 =    -0.3448682729D+01 EUMP2 =    -0.17323102594678D+04

 The electronic state is 1-A.
 Alpha  occ. eigenvalues --  -92.23591 -92.08254 -20.56887 -20.56572 -20.52783
 Alpha  occ. eigenvalues --  -15.62838 -11.32964 -11.29791 -11.29145 -11.28342
 Alpha  occ. eigenvalues --  -11.28105 -11.27965 -11.27822 -11.27272 -11.27187
 Alpha  occ. eigenvalues --  -11.25213 -11.24423 -11.23927 -11.23925 -11.23680
 Alpha  occ. eigenvalues --  -11.23599 -11.23525 -11.22920  -9.20400  -9.07110
 Alpha  occ. eigenvalues --   -6.88932  -6.88888  -6.88783  -6.75327  -6.75205
 Alpha  occ. eigenvalues --   -6.75071  -1.46528  -1.34379  -1.33441  -1.26506
 Alpha  occ. eigenvalues --   -1.19230  -1.15414  -1.13396  -1.06944  -1.06565
 Alpha  occ. eigenvalues --   -1.05309  -1.01039  -1.00416  -0.96408  -0.94035
 Alpha  occ. eigenvalues --   -0.90922  -0.86506  -0.85626  -0.82655  -0.81980
 Alpha  occ. eigenvalues --   -0.79725  -0.77077  -0.74807  -0.71667  -0.70987
 Alpha  occ. eigenvalues --   -0.69189  -0.68790  -0.66655  -0.66470  -0.64854
 Alpha  occ. eigenvalues --   -0.64394  -0.63291  -0.62574  -0.62343  -0.61962
 Alpha  occ. eigenvalues --   -0.61012  -0.59239  -0.58168  -0.57603  -0.56690
 Alpha  occ. eigenvalues --   -0.55674  -0.55087  -0.54166  -0.53687  -0.53462
 Alpha  occ. eigenvalues --   -0.53010  -0.51573  -0.51485  -0.50036  -0.49780
 Alpha  occ. eigenvalues --   -0.48176  -0.47970  -0.47518  -0.47009  -0.46727
 Alpha  occ. eigenvalues --   -0.44179  -0.40941  -0.37518  -0.36961  -0.36765
 Alpha  occ. eigenvalues --   -0.33100  -0.32260
 Alpha virt. eigenvalues --    0.02151   0.02869   0.03475   0.04072   0.04223
 Alpha virt. eigenvalues --    0.04555   0.05258   0.05546   0.05849   0.06207
 Alpha virt. eigenvalues --    0.06313   0.06911   0.07235   0.07352   0.07690

 Mulliken charges:
               1
     1  O   -1.222476
     2  S    2.959397
     3  N   -1.138814
     4  C    0.147038
     5  C    0.643405
     6  S    1.545501
     7  O   -1.224134
     8  C    0.531044
     9  C    0.585212
    10  C    0.616360
    11  C    0.608041
    12  C    0.964352
    13  C    0.039614
    14  C    0.702240
    15  C    0.025160
    16  C    0.645465
    17  C    0.674695
    18  C    0.409824
    19  C    0.241263
    20  C    0.759049
    21  C    0.260288
    22  C    0.557350
    23  O   -1.320051
    24  H   -0.093857
    25  H   -0.262115
    26  H   -0.298889
    27  H   -0.340714
    28  H   -0.365311
    29  H   -0.431504
    30  H   -0.180514
    31  H   -0.091656
    32  H   -0.344859
    33  H   -0.702746
    34  H   -0.486678
    35  H   -0.453802
    36  H   -0.532390
    37  H   -0.657848
    38  H   -0.719083
    39  H   -0.483230
    40  H   -0.449118
    41  H   -0.491639
    42  H   -0.623873
 Sum of Mulliken charges =  -0.00000

 Dipole moment (field-independent basis, Debye):
    X=             -4.3937    Y=              0.8803    Z=             -3.6700  Tot=              5.7921
 Quadrupole moment (field-independent basis, Debye-Ang):
   XX=           -162.6852   YY=           -140.0254   ZZ=           -159.3858
   XY=             -2.8780   XZ=             23.7249   YZ=              4.8294

 Normal termination of Gaussian 16 at Mon Sep 21 08:53:56 2020.
