 Gaussian 16, Revision B.01,

 ----------------------------------------------------------------------
 #p b3lyp/6-31G(d) opt freq NoSymm scf=(MaxCycle=2000,NoVarAcc,NoIncFoc
 k) scrf=(iefpcm,read,solvent=water)
 ----------------------------------------------------------------------

 -------------------
 SM36_m1.a.6.pdb.xyz
 -------------------
 Symbolic Z-matrix:
 Charge = -1 Multiplicity = 1

 SCF Done:  E(RB3LYP) =  -1735.52332268     A.U. after   13 cycles
 SCF Done:  E(RB3LYP) =  -1735.53528249     A.U. after   12 cycles
 SCF Done:  E(RB3LYP) =  -1735.53716979     A.U. after   11 cycles
 SCF Done:  E(RB3LYP) =  -1735.53794144     A.U. after   11 cycles
 SCF Done:  E(RB3LYP) =  -1735.53844668     A.U. after   11 cycles
 SCF Done:  E(RB3LYP) =  -1735.53894079     A.U. after   11 cycles
 SCF Done:  E(RB3LYP) =  -1735.53937978     A.U. after   11 cycles
 SCF Done:  E(RB3LYP) =  -1735.53925203     A.U. after   11 cycles
 SCF Done:  E(RB3LYP) =  -1735.53954911     A.U. after   11 cycles
 SCF Done:  E(RB3LYP) =  -1735.53959222     A.U. after   10 cycles
 SCF Done:  E(RB3LYP) =  -1735.53972194     A.U. after    9 cycles
 SCF Done:  E(RB3LYP) =  -1735.53972254     A.U. after    8 cycles
 SCF Done:  E(RB3LYP) =  -1735.53970941     A.U. after    9 cycles
 SCF Done:  E(RB3LYP) =  -1735.53971007     A.U. after    7 cycles
 SCF Done:  E(RB3LYP) =  -1735.53972188     A.U. after    9 cycles
 SCF Done:  E(RB3LYP) =  -1735.53971026     A.U. after    9 cycles
 Optimization completed on the basis of negligible forces.
    -- Stationary point found.
 Normal termination of Gaussian 16 at Mon Sep 21 06:50:07 2020.

 --------------------------------------------------------------------
 #P Geom=AllCheck Guess=TCheck SCRF=Check GenChk RB3LYP/6-31G(d) Freq
 --------------------------------------------------------------------

 Structure from the checkpoint file:  "SM36_m1.a.6.pdb.xyz.mst.a.w.chk"
 -------------------
 SM36_m1.a.6.pdb.xyz
 -------------------
 Charge = -1 Multiplicity = 1

 SCF Done:  E(RB3LYP) =  -1735.53971026     A.U. after    1 cycles

  Exact polarizability: 366.464   3.639 258.496 -29.498  25.524 285.134
 Approx polarizability: 392.158   8.965 305.083 -27.462  31.314 339.717

                      1                      2                      3
                      A                      A                      A
 Frequencies --     21.4828                21.9650                36.9740
 Red. masses --      5.6683                 6.6158                 3.8789
 Frc consts  --      0.0015                 0.0019                 0.0031
 IR Inten    --      2.0922                 4.3298                 0.0231

                      4                      5                      6
                      A                      A                      A
 Frequencies --     41.2268                44.2800                56.5781
 Red. masses --      6.6525                 5.0059                 5.0704
 Frc consts  --      0.0067                 0.0058                 0.0096
 IR Inten    --      1.5410                 0.2778                 1.2314

                      7                      8                      9
                      A                      A                      A
 Frequencies --     66.3060               116.8562               131.3102
 Red. masses --      7.5253                 5.1187                 6.0304
 Frc consts  --      0.0195                 0.0412                 0.0613
 IR Inten    --     13.7267                 0.2770                 4.9977

                     10                     11                     12
                      A                      A                      A
 Frequencies --    160.5549               171.9295               175.7352
 Red. masses --      5.7262                 5.8556                 4.1050
 Frc consts  --      0.0870                 0.1020                 0.0747
 IR Inten    --      8.7329                 7.6117                 9.4361

                     13                     14                     15
                      A                      A                      A
 Frequencies --    216.4166               261.1943               277.7383
 Red. masses --      6.0077                 8.2628                 4.9958
 Frc consts  --      0.1658                 0.3321                 0.2271
 IR Inten    --     13.3700                 1.7111                 2.1533

                     16                     17                     18
                      A                      A                      A
 Frequencies --    290.0106               297.6115               325.7385
 Red. masses --      3.5567                 5.9775                 2.9844
 Frc consts  --      0.1763                 0.3119                 0.1866
 IR Inten    --     16.0856                 6.6399                 4.9020

                     19                     20                     21
                      A                      A                      A
 Frequencies --    339.3300               364.0083               377.8770
 Red. masses --      4.0190                 2.0393                 2.7363
 Frc consts  --      0.2727                 0.1592                 0.2302
 IR Inten    --     10.5396                 1.1370                 5.6586

                     22                     23                     24
                      A                      A                      A
 Frequencies --    385.1976               414.0642               415.8869
 Red. masses --      4.6197                 4.3108                 3.0515
 Frc consts  --      0.4039                 0.4355                 0.3110
 IR Inten    --      4.4307                 6.3757                 1.0665

                     25                     26                     27
                      A                      A                      A
 Frequencies --    416.9907               474.2407               501.3008
 Red. masses --      3.1796                 4.0294                 4.0926
 Frc consts  --      0.3257                 0.5339                 0.6060
 IR Inten    --      1.0700                13.9494                11.5189

                     28                     29                     30
                      A                      A                      A
 Frequencies --    509.8735               549.9634               570.8631
 Red. masses --      4.0280                 6.5066                 6.2645
 Frc consts  --      0.6170                 1.1595                 1.2028
 IR Inten    --      3.5022                49.6771               171.5948

                     31                     32                     33
                      A                      A                      A
 Frequencies --    587.3166               600.9706               628.0858
 Red. masses --      5.4289                 3.7225                 6.4350
 Frc consts  --      1.1033                 0.7921                 1.4957
 IR Inten    --     75.7431               122.3676                 0.1117

                     34                     35                     36
                      A                      A                      A
 Frequencies --    634.5071               639.1417               686.8175
 Red. masses --      6.3288                 4.5720                 5.4195
 Frc consts  --      1.5012                 1.1004                 1.5062
 IR Inten    --      0.2227                17.1135                37.9890

                     37                     38                     39
                      A                      A                      A
 Frequencies --    705.3473               712.6720               716.3092
 Red. masses --      2.6100                 5.1799                 2.0284
 Frc consts  --      0.7651                 1.5501                 0.6132
 IR Inten    --     54.9299                66.0481                47.6174

                     40                     41                     42
                      A                      A                      A
 Frequencies --    741.4539               768.4260               773.1452
 Red. masses --      2.4549                 1.5495                 2.7154
 Frc consts  --      0.7952                 0.5391                 0.9563
 IR Inten    --     21.7184                36.9444                25.6545

                     43                     44                     45
                      A                      A                      A
 Frequencies --    775.3364               816.9825               842.4320
 Red. masses --      2.1440                 1.7676                 3.1712
 Frc consts  --      0.7594                 0.6951                 1.3260
 IR Inten    --     10.1647                 4.8688                85.1642

                     46                     47                     48
                      A                      A                      A
 Frequencies --    866.6405               867.0099               884.3670
 Red. masses --      1.2433                 1.2541                 2.3279
 Frc consts  --      0.5502                 0.5554                 1.0727
 IR Inten    --      0.3910                 0.1152                17.4652

                     49                     50                     51
                      A                      A                      A
 Frequencies --    919.6332               937.8414               941.5302
 Red. masses --      2.1285                 1.7156                 1.3323
 Frc consts  --      1.0606                 0.8890                 0.6959
 IR Inten    --     31.8334                 8.5545                 3.2476

                     52                     53                     54
                      A                      A                      A
 Frequencies --    958.7139               976.4106               985.5075
 Red. masses --      2.5363                 1.3549                 1.3541
 Frc consts  --      1.3735                 0.7611                 0.7748
 IR Inten    --    113.6155                 0.3782                 0.9100

                     55                     56                     57
                      A                      A                      A
 Frequencies --    994.7877              1001.7601              1009.0109
 Red. masses --      2.7054                 1.2791                 1.2610
 Frc consts  --      1.5774                 0.7563                 0.7564
 IR Inten    --    104.4660                 5.0166                 0.7206

                     58                     59                     60
                      A                      A                      A
 Frequencies --   1012.8091              1015.6585              1029.8793
 Red. masses --      5.7250                 6.1501                 5.0409
 Frc consts  --      3.4600                 3.7379                 3.1501
 IR Inten    --     24.1294                 2.1529               180.6305

                     61                     62                     63
                      A                      A                      A
 Frequencies --   1048.8153              1050.6598              1055.9069
 Red. masses --      2.6747                 1.8585                 1.8772
 Frc consts  --      1.7335                 1.2088                 1.2332
 IR Inten    --      1.0856                84.4374                14.4802

                     64                     65                     66
                      A                      A                      A
 Frequencies --   1065.1828              1067.7505              1086.0339
 Red. masses --      2.0606                 2.4511                 2.4363
 Frc consts  --      1.3775                 1.6465                 1.6931
 IR Inten    --     36.1593               141.7698                17.3010

                     67                     68                     69
                      A                      A                      A
 Frequencies --   1102.0304              1110.3771              1113.6366
 Red. masses --      1.5918                 3.0638                 1.9578
 Frc consts  --      1.1390                 2.2256                 1.4306
 IR Inten    --      8.7100               126.1772               177.5448

                     70                     71                     72
                      A                      A                      A
 Frequencies --   1141.6830              1170.7411              1185.7165
 Red. masses --      3.1254                12.8074                 1.0965
 Frc consts  --      2.4002                10.3427                 0.9083
 IR Inten    --    347.8554               486.3033                 0.9688

                     73                     74                     75
                      A                      A                      A
 Frequencies --   1187.1974              1197.6959              1199.8194
 Red. masses --      1.0993                 1.2767                 1.1536
 Frc consts  --      0.9129                 1.0791                 0.9784
 IR Inten    --      0.0407                 1.4959                 1.9946

                     76                     77                     78
                      A                      A                      A
 Frequencies --   1209.2934              1211.3126              1229.2293
 Red. masses --      1.1779                 1.2405                 2.5012
 Frc consts  --      1.0149                 1.0724                 2.2267
 IR Inten    --      2.1054                 4.9808                 4.4364

                     79                     80                     81
                      A                      A                      A
 Frequencies --   1237.5275              1277.9847              1299.5301
 Red. masses --      1.8187                 1.9167                 1.2975
 Frc consts  --      1.6411                 1.8444                 1.2910
 IR Inten    --     54.2909               113.5838                31.7415

                     82                     83                     84
                      A                      A                      A
 Frequencies --   1332.5661              1351.6881              1352.8907
 Red. masses --      1.7408                 3.8602                 3.4595
 Frc consts  --      1.8213                 4.1554                 3.7307
 IR Inten    --      1.8565                 1.3041                 0.7208

                     85                     86                     87
                      A                      A                      A
 Frequencies --   1366.8799              1386.2306              1403.6486
 Red. masses --      1.4180                 1.3071                 1.4024
 Frc consts  --      1.5609                 1.4799                 1.6279
 IR Inten    --      3.5122                 9.2543                14.5808

                     88                     89                     90
                      A                      A                      A
 Frequencies --   1447.8546              1466.3058              1484.7500
 Red. masses --      1.0892                 1.1119                 2.1231
 Frc consts  --      1.3453                 1.4086                 2.7576
 IR Inten    --     14.0072                10.7371                18.6827

                     91                     92                     93
                      A                      A                      A
 Frequencies --   1496.2418              1501.7726              1514.2422
 Red. masses --      1.9721                 1.0961                 1.1570
 Frc consts  --      2.6012                 1.4565                 1.5631
 IR Inten    --      8.3047                 4.0769                 7.5693

                     94                     95                     96
                      A                      A                      A
 Frequencies --   1521.3589              1543.2302              1635.2036
 Red. masses --      2.0688                 2.1846                 5.6887
 Frc consts  --      2.8212                 3.0653                 8.9621
 IR Inten    --      8.2521                19.0892                 0.2389

                     97                     98                     99
                      A                      A                      A
 Frequencies --   1636.9860              1640.5857              1658.3945
 Red. masses --      5.3781                 5.4808                 5.5334
 Frc consts  --      8.4913                 8.6915                 8.9664
 IR Inten    --      1.2538                 0.6947                11.1140

                    100                    101                    102
                      A                      A                      A
 Frequencies --   3033.5491              3046.0391              3088.4219
 Red. masses --      1.0654                 1.0677                 1.0987
 Frc consts  --      5.7763                 5.8370                 6.1747
 IR Inten    --     22.4058               103.4805                17.5947

                    103                    104                    105
                      A                      A                      A
 Frequencies --   3099.9006              3112.4974              3118.1488
 Red. masses --      1.0580                 1.0942                 1.0566
 Frc consts  --      5.9900                 6.2457                 6.0530
 IR Inten    --     18.8743                50.1108                 9.4638

                    106                    107                    108
                      A                      A                      A
 Frequencies --   3171.4996              3173.9208              3181.7750
 Red. masses --      1.1088                 1.0869                 1.0860
 Frc consts  --      6.5710                 6.4509                 6.4776
 IR Inten    --      6.1191                17.2616                 1.9203

                    109                    110                    111
                      A                      A                      A
 Frequencies --   3190.4851              3190.6735              3193.1509
 Red. masses --      1.0902                 1.0857                 1.1111
 Frc consts  --      6.5385                 6.5121                 6.6746
 IR Inten    --     25.0211                 0.2782                 1.9246

                    112                    113                    114
                      A                      A                      A
 Frequencies --   3197.3777              3198.4085              3208.3381
 Red. masses --      1.0938                 1.0894                 1.0977
 Frc consts  --      6.5882                 6.5660                 6.6575
 IR Inten    --     81.8639                24.7721                31.9415

                    115                    116                    117
                      A                      A                      A
 Frequencies --   3211.0490              3219.1396              3224.7742
 Red. masses --      1.0932                 1.0935                 1.0934
 Frc consts  --      6.6413                 6.6766                 6.6995
 IR Inten    --     35.2464                23.6124                14.7060

 - Thermochemistry -
 -------------------
 Temperature   298.150 Kelvin.  Pressure   1.00000 Atm.
 Atom     1 has atomic number  8 and mass  15.99491

 Molecular mass:   348.07281 amu.
 Principal axes and moments of inertia in atomic units:
                           1         2         3
     Eigenvalues --  4356.70506********************
           X            0.99946   0.00266  -0.03274
           Y           -0.00220   0.99990   0.01404
           Z            0.03278  -0.01396   0.99937
 This molecule is an asymmetric top.
 Rotational symmetry number  1.
 Warning -- assumption of classical behavior for rotation
           may cause significant error
 Rotational temperatures (Kelvin)      0.01988     0.00645     0.00580
 Rotational constants (GHZ):           0.41424     0.13432     0.12084
 Zero-point vibrational energy     842841.6 (Joules/Mol)
                                  201.44398 (Kcal/Mol)
 Warning -- explicit consideration of  32 degrees of freedom as
           vibrations may cause significant error
 Vibrational temperatures:     30.91    31.60    53.20    59.32    63.71
          (Kelvin)             81.40    95.40   168.13   188.93   231.00
                              247.37   252.84   311.38   375.80   399.60
                              417.26   428.20   468.67   488.22   523.73
                              543.68   554.21   595.75   598.37   599.96
                              682.33   721.26   733.59   791.27   821.34
                              845.02   864.66   903.68   912.91   919.58
                              988.18  1014.84  1025.38  1030.61  1066.79
                             1105.59  1112.38  1115.54  1175.46  1212.07
                             1246.90  1247.43  1272.41  1323.15  1349.34
                             1354.65  1379.38  1404.84  1417.93  1431.28
                             1441.31  1451.74  1457.21  1461.31  1481.77
                             1509.01  1511.67  1519.21  1532.56  1536.25
                             1562.56  1585.58  1597.59  1602.27  1642.63
                             1684.44  1705.98  1708.11  1723.22  1726.27
                             1739.90  1742.81  1768.59  1780.53  1838.73
                             1869.73  1917.27  1944.78  1946.51  1966.64
                             1994.48  2019.54  2083.14  2109.69  2136.22
                             2152.76  2160.72  2178.66  2188.90  2220.36
                             2352.69  2355.26  2360.44  2386.06  4364.60
                             4382.57  4443.55  4460.07  4478.19  4486.32
                             4563.08  4566.56  4577.86  4590.40  4590.67
                             4594.23  4600.31  4601.80  4616.08  4619.98
                             4631.62  4639.73

 Zero-point correction=                           0.321021 (Hartree/Particle)
 Thermal correction to Energy=                    0.341943
 Thermal correction to Enthalpy=                  0.342887
 Thermal correction to Gibbs Free Energy=         0.268474
 Sum of electronic and zero-point Energies=          -1735.218689
 Sum of electronic and thermal Energies=             -1735.197768
 Sum of electronic and thermal Enthalpies=           -1735.196823
 Sum of electronic and thermal Free Energies=        -1735.271236

                     E (Thermal)             CV                S
                      KCal/Mol        Cal/Mol-Kelvin    Cal/Mol-Kelvin
 Total                  214.572             81.365            156.615
 Electronic               0.000              0.000              0.000
 Translational            0.889              2.981             43.436
 Rotational               0.889              2.981             35.124
 Vibrational            212.795             75.404             78.055
 Vibration     1          0.593              1.985              6.492
 Vibration     2          0.593              1.985              6.448
 Vibration     3          0.594              1.982              5.415
 Vibration     4          0.594              1.981              5.199
 Vibration     5          0.595              1.980              5.058
 Vibration     6          0.596              1.975              4.573
 Vibration     7          0.598              1.970              4.260
 Vibration     8          0.608              1.935              3.152
 Vibration     9          0.612              1.922              2.927
 Vibration    10          0.622              1.891              2.543
 Vibration    11          0.626              1.877              2.414
 Vibration    12          0.628              1.872              2.373
 Vibration    13          0.645              1.816              1.989
 Vibration    14          0.669              1.744              1.654
 Vibration    15          0.679              1.715              1.548
 Vibration    16          0.686              1.692              1.474
 Vibration    17          0.691              1.678              1.430
 Vibration    18          0.710              1.624              1.281
 Vibration    19          0.719              1.597              1.215
 Vibration    20          0.738              1.546              1.105
 Vibration    21          0.748              1.517              1.048
 Vibration    22          0.754              1.502              1.019
 Vibration    23          0.778              1.440              0.912
 Vibration    24          0.779              1.436              0.906
 Vibration    25          0.780              1.433              0.902
 Vibration    26          0.831              1.307              0.726
 Vibration    27          0.857              1.247              0.655
 Vibration    28          0.865              1.228              0.634
 Vibration    29          0.905              1.140              0.544
 Vibration    30          0.927              1.094              0.503
 Vibration    31          0.944              1.059              0.472
 Vibration    32          0.959              1.030              0.448

 Optimization completed.
    -- Stationary point found.
 Normal termination of Gaussian 16 at Mon Sep 21 07:13:09 2020.

 ----------------------------------------------------------------------
 #p b3lyp/6-31G(d) scrf=(iefpcm,read,solvent=water) geom=allcheck guess
 =read
 ----------------------------------------------------------------------

 Structure from the checkpoint file:  "SM36_m1.a.6.pdb.xyz.mst.a.w.chk"
 -------------------
 SM36_m1.a.6.pdb.xyz
 -------------------
 Charge = -1 Multiplicity = 1

 SCF Done:  E(RB3LYP) =  -1735.53971598     A.U. after    6 cycles
 Normal termination of Gaussian 16 at Mon Sep 21 07:14:07 2020.

 -----------------------------
 #p B3LYP/6-31G* geom=allcheck
 -----------------------------

 Structure from the checkpoint file:  "SM36_m1.a.6.pdb.xyz.mst.a.w.chk"
 -------------------
 SM36_m1.a.6.pdb.xyz
 -------------------
 Charge = -1 Multiplicity = 1

 SCF Done:  E(RB3LYP) =  -1735.36513472     A.U. after   15 cycles
 Normal termination of Gaussian 16 at Mon Sep 21 07:15:25 2020.
 Gaussian 16:  ES64L-G16RevB.01 20-Dec-2017

 ----------------------------------------------------------------------
 #p mp2/aug-cc-pVDZ scf=(MaxCycle=2000,NoVarAcc,NoIncFock) maxdisk=120G
 B geom=allcheck
 ----------------------------------------------------------------------

 Structure from the checkpoint file:  "SM36_m1.a.6.pdb.xyz.mst.a.w.chk"
 -------------------
 SM36_m1.a.6.pdb.xyz
 -------------------
 Charge = -1 Multiplicity = 1

                         Standard orientation:
 ---------------------------------------------------------------------
 Center     Atomic      Atomic             Coordinates (Angstroms)
 Number     Number       Type             X           Y           Z
 ---------------------------------------------------------------------
      1          8           0       -1.454900   -0.357524   -2.113900
      2         16           0       -1.504242   -1.095209   -0.809416
      3          7           0       -0.342641   -0.775927    0.213373
      4          6           0        0.280989    0.539013    0.271434
      5          6           0       -0.620509    1.820575    0.187827
      6         16           0        0.596097    2.732340   -0.893675
      7          8           0        1.561606    3.555030   -0.029865
      8          6           0        1.157183    0.955318   -0.961389
      9          6           0        1.086225    0.614672    1.594118
     10          6           0        2.020106   -0.568403    1.932860
     11          6           0        3.201461   -0.785562    1.007764
     12          6           0        4.329804    0.047466    1.074442
     13          6           0        5.421073   -0.148593    0.225434
     14          6           0        5.407857   -1.191315   -0.706123
     15          6           0        4.295323   -2.033014   -0.778635
     16          6           0        3.204514   -1.829455    0.070880
     17          6           0       -3.093663   -0.598484   -0.074316
     18          6           0       -3.289247   -0.721849    1.304984
     19          6           0       -4.528497   -0.398810    1.860728
     20          6           0       -5.570604    0.046820    1.042108
     21          6           0       -5.370646    0.169982   -0.335260
     22          6           0       -4.133239   -0.154457   -0.896852
     23          8           0       -1.610557   -2.578238   -0.943322
     24          1           0       -0.838357    2.349301    1.119997
     25          1           0       -1.534979    1.690276   -0.393683
     26          1           0        2.240790    0.859622   -0.882458
     27          1           0        0.790630    0.525572   -1.894897
     28          1           0        0.353629    0.687999    2.409344
     29          1           0        1.654594    1.552317    1.597736
     30          1           0        1.424213   -1.484237    1.980028
     31          1           0        2.398874   -0.388248    2.947722
     32          1           0        4.353992    0.856125    1.802079
     33          1           0        6.284608    0.507945    0.295517
     34          1           0        6.257944   -1.347934   -1.364662
     35          1           0        4.275291   -2.849491   -1.496002
     36          1           0        2.337425   -2.481788    0.002866
     37          1           0       -2.471948   -1.053591    1.937353
     38          1           0       -4.678593   -0.490942    2.932844
     39          1           0       -6.533050    0.301080    1.477086
     40          1           0       -6.176571    0.520486   -0.974141
     41          1           0       -3.967659   -0.054673   -1.964220
 ---------------------------------------------------------------------

 SCF Done:  E(RHF) =  -1728.32097447     A.U. after   16 cycles
 E2 =    -0.3462227948D+01 EUMP2 =    -0.17317832024154D+04

 The electronic state is 1-A.
 Alpha  occ. eigenvalues --  -92.05565 -91.94512 -20.39764 -20.39548 -20.38532
 Alpha  occ. eigenvalues --  -15.38485 -11.17257 -11.15993 -11.15787 -11.15617
 Alpha  occ. eigenvalues --  -11.15594 -11.15334 -11.15209 -11.15148 -11.15115
 Alpha  occ. eigenvalues --  -11.15024 -11.14996 -11.14703 -11.14530 -11.13958
 Alpha  occ. eigenvalues --  -11.13660 -11.12796 -11.11948  -9.02228  -8.93424
 Alpha  occ. eigenvalues --   -6.70792  -6.70701  -6.70657  -6.61652  -6.61517
 Alpha  occ. eigenvalues --   -6.61398  -1.27888  -1.20014  -1.15651  -1.06875
 Alpha  occ. eigenvalues --   -1.06332  -1.05756  -0.97420  -0.95799  -0.93081
 Alpha  occ. eigenvalues --   -0.92777  -0.92068  -0.88908  -0.81584  -0.80178
 Alpha  occ. eigenvalues --   -0.75892  -0.73833  -0.73331  -0.72419  -0.68795
 Alpha  occ. eigenvalues --   -0.67537  -0.62752  -0.60367  -0.59561  -0.56054
 Alpha  occ. eigenvalues --   -0.54429  -0.54182  -0.53940  -0.52593  -0.52058
 Alpha  occ. eigenvalues --   -0.51365  -0.50099  -0.49781  -0.49120  -0.48165
 Alpha  occ. eigenvalues --   -0.46831  -0.46355  -0.45498  -0.44709  -0.43060
 Alpha  occ. eigenvalues --   -0.42227  -0.41525  -0.41257  -0.40562  -0.40418
 Alpha  occ. eigenvalues --   -0.39822  -0.38890  -0.37770  -0.36600  -0.35774
 Alpha  occ. eigenvalues --   -0.34701  -0.33108  -0.31518  -0.29547  -0.28006
 Alpha  occ. eigenvalues --   -0.26861  -0.24774  -0.24571  -0.24291  -0.23573
 Alpha  occ. eigenvalues --   -0.21872  -0.21338
 Alpha virt. eigenvalues --    0.09576   0.09972   0.10550   0.11022   0.11463
 Alpha virt. eigenvalues --    0.11957   0.12662   0.13186   0.13900   0.14231
 Alpha virt. eigenvalues --    0.14827   0.15292   0.15361   0.16023   0.16770

 Mulliken charges:
               1
     1  O   -1.369370
     2  S    2.915464
     3  N   -1.838229
     4  C    0.738003
     5  C    0.577898
     6  S    1.473977
     7  O   -1.307615
     8  C    0.331150
     9  C    0.165926
    10  C    0.419248
    11  C    0.944933
    12  C    0.440245
    13  C    0.130106
    14  C    0.711624
    15  C   -0.001689
    16  C    0.749142
    17  C    0.750135
    18  C    0.385803
    19  C    0.261647
    20  C    0.697103
    21  C    0.426185
    22  C    0.107063
    23  O   -1.304232
    24  H   -0.338250
    25  H   -0.223101
    26  H   -0.320201
    27  H   -0.302436
    28  H   -0.188203
    29  H   -0.105810
    30  H   -0.177023
    31  H   -0.157935
    32  H   -0.673502
    33  H   -0.492390
    34  H   -0.466569
    35  H   -0.496160
    36  H   -0.689439
    37  H   -0.703887
    38  H   -0.506922
    39  H   -0.465054
    40  H   -0.479839
    41  H   -0.617793
 Sum of Mulliken charges =  -1.00000

 Dipole moment (field-independent basis, Debye):
    X=             -0.3158    Y=              0.9291    Z=              3.6880  Tot=              3.8163
 Quadrupole moment (field-independent basis, Debye-Ang):
   XX=           -173.8365   YY=           -199.8560   ZZ=           -160.7155
   XY=            -18.8438   XZ=             -9.9180   YZ=             -3.4688

 Normal termination of Gaussian 16 at Mon Sep 21 08:52:21 2020.
