 Gaussian 16, Revision B.01,

 ----------------------------------------------------------------------
 #p b3lyp/6-31G(d) opt freq NoSymm scf=(MaxCycle=2000,NoVarAcc,NoIncFoc
 k) scrf=(iefpcm,read,solvent=water)
 ----------------------------------------------------------------------

 --------------------
 SM36_m0.n.10.pdb.xyz
 --------------------
 Symbolic Z-matrix:
 Charge =  0 Multiplicity = 1

 SCF Done:  E(RB3LYP) =  -1735.94167233     A.U. after   13 cycles
 SCF Done:  E(RB3LYP) =  -1735.94168433     A.U. after   10 cycles
 SCF Done:  E(RB3LYP) =  -1735.94160022     A.U. after   10 cycles
 SCF Done:  E(RB3LYP) =  -1735.94176953     A.U. after   10 cycles
 SCF Done:  E(RB3LYP) =  -1735.94173584     A.U. after    9 cycles
 SCF Done:  E(RB3LYP) =  -1735.94174187     A.U. after    7 cycles
 SCF Done:  E(RB3LYP) =  -1735.94174319     A.U. after    8 cycles
 SCF Done:  E(RB3LYP) =  -1735.94174312     A.U. after    7 cycles
 SCF Done:  E(RB3LYP) =  -1735.94175200     A.U. after    8 cycles
 SCF Done:  E(RB3LYP) =  -1735.94176914     A.U. after    9 cycles
 SCF Done:  E(RB3LYP) =  -1735.94175156     A.U. after    7 cycles
 SCF Done:  E(RB3LYP) =  -1735.94176907     A.U. after    9 cycles
 SCF Done:  E(RB3LYP) =  -1735.94175205     A.U. after    9 cycles
 SCF Done:  E(RB3LYP) =  -1735.94175237     A.U. after    6 cycles
 SCF Done:  E(RB3LYP) =  -1735.94176894     A.U. after    9 cycles
 SCF Done:  E(RB3LYP) =  -1735.94175255     A.U. after    9 cycles
 Optimization completed.
    -- Stationary point found.
 Normal termination of Gaussian 16 at Mon Sep 21 06:25:07 2020.

 --------------------------------------------------------------------
 #P Geom=AllCheck Guess=TCheck SCRF=Check GenChk RB3LYP/6-31G(d) Freq
 --------------------------------------------------------------------

 Structure from the checkpoint file:  "SM36_m0.n.10.pdb.xyz.mst.n.w.chk"
 --------------------
 SM36_m0.n.10.pdb.xyz
 --------------------
 Charge =  0 Multiplicity = 1

 SCF Done:  E(RB3LYP) =  -1735.94175255     A.U. after    1 cycles

  Exact polarizability: 352.965   7.765 284.040 -16.683 -26.435 244.848
 Approx polarizability: 379.007   4.360 330.512 -18.796 -38.121 302.161

                      1                      2                      3
                      A                      A                      A
 Frequencies --     15.9868                17.9188                23.5464
 Red. masses --      4.0051                 6.5009                 5.6416
 Frc consts  --      0.0006                 0.0012                 0.0018
 IR Inten    --      0.3137                 1.3233                 0.2020

                      4                      5                      6
                      A                      A                      A
 Frequencies --     40.0895                43.9817                63.8178
 Red. masses --      4.0172                 6.3436                 5.0361
 Frc consts  --      0.0038                 0.0072                 0.0121
 IR Inten    --      0.2565                 2.2476                 2.0882

                      7                      8                      9
                      A                      A                      A
 Frequencies --     88.4426                99.8739               106.6205
 Red. masses --      5.6494                 7.0968                 4.8194
 Frc consts  --      0.0260                 0.0417                 0.0323
 IR Inten    --      6.5021                 6.0534                 5.8235

                     10                     11                     12
                      A                      A                      A
 Frequencies --    158.8528               167.5780               189.6256
 Red. masses --      5.7575                 5.4990                 4.2819
 Frc consts  --      0.0856                 0.0910                 0.0907
 IR Inten    --      1.2571                 4.7253                 3.1444

                     13                     14                     15
                      A                      A                      A
 Frequencies --    214.0761               231.0202               259.0900
 Red. masses --      4.5044                 6.3156                 5.0646
 Frc consts  --      0.1216                 0.1986                 0.2003
 IR Inten    --     10.2954                 9.6610                 4.4764

                     16                     17                     18
                      A                      A                      A
 Frequencies --    277.3325               299.9662               307.8561
 Red. masses --      2.9430                 4.3069                 5.2943
 Frc consts  --      0.1334                 0.2283                 0.2956
 IR Inten    --      1.7939                 9.1029                 5.2283

                     19                     20                     21
                      A                      A                      A
 Frequencies --    319.7042               335.3518               380.5957
 Red. masses --      2.5374                 3.4335                 3.2265
 Frc consts  --      0.1528                 0.2275                 0.2754
 IR Inten    --      9.1823                15.0631                 4.6656

                     22                     23                     24
                      A                      A                      A
 Frequencies --    391.0363               394.7430               411.8405
 Red. masses --      3.5194                 4.1171                 2.9556
 Frc consts  --      0.3171                 0.3780                 0.2954
 IR Inten    --     20.9142                 2.5282                 0.2184

                     25                     26                     27
                      A                      A                      A
 Frequencies --    416.5399               460.5921               483.6235
 Red. masses --      2.9783                 3.6256                 3.7745
 Frc consts  --      0.3045                 0.4532                 0.5201
 IR Inten    --      0.0608                 6.0491                12.6358

                     28                     29                     30
                      A                      A                      A
 Frequencies --    501.5395               519.4401               547.2003
 Red. masses --      2.2256                 3.2100                 5.9383
 Frc consts  --      0.3298                 0.5103                 1.0476
 IR Inten    --    119.7524                19.0590               104.5903

                     31                     32                     33
                      A                      A                      A
 Frequencies --    569.0364               593.8761               613.9156
 Red. masses --      9.4999                 3.9477                 5.0526
 Frc consts  --      1.8124                 0.8203                 1.1220
 IR Inten    --    165.1231                25.4735               105.6884

                     34                     35                     36
                      A                      A                      A
 Frequencies --    625.1713               634.1191               642.3239
 Red. masses --      6.4251                 6.3109                 4.3001
 Frc consts  --      1.4796                 1.4951                 1.0453
 IR Inten    --      0.9813                 1.3184                36.3136

                     37                     38                     39
                      A                      A                      A
 Frequencies --    698.0947               714.2823               717.0521
 Red. masses --      2.4207                 1.8936                 5.9467
 Frc consts  --      0.6950                 0.5692                 1.8015
 IR Inten    --     46.1811                34.2564                21.2538

                     40                     41                     42
                      A                      A                      A
 Frequencies --    719.6833               762.1833               767.0703
 Red. masses --      2.4237                 1.8203                 1.5170
 Frc consts  --      0.7396                 0.6230                 0.5259
 IR Inten    --     12.4880                50.7360                37.7659

                     43                     44                     45
                      A                      A                      A
 Frequencies --    797.8036               803.8767               825.2325
 Red. masses --      1.5727                 3.7451                 1.8143
 Frc consts  --      0.5898                 1.4259                 0.7280
 IR Inten    --      2.8060                 5.4660                33.8125

                     46                     47                     48
                      A                      A                      A
 Frequencies --    857.3192               858.7685               863.3094
 Red. masses --      1.3561                 2.5138                 2.7120
 Frc consts  --      0.5873                 1.0923                 1.1909
 IR Inten    --     22.0257                72.4872               128.9688

                     49                     50                     51
                      A                      A                      A
 Frequencies --    864.7489               913.5688               931.4844
 Red. masses --      1.2516                 2.4822                 1.4962
 Frc consts  --      0.5514                 1.2206                 0.7649
 IR Inten    --      0.0598               123.3012                14.7542

                     52                     53                     54
                      A                      A                      A
 Frequencies --    946.4638               970.2690               975.4646
 Red. masses --      1.3126                 2.1052                 1.3752
 Frc consts  --      0.6928                 1.1677                 0.7710
 IR Inten    --      1.1368               103.1570                 6.2035

                     55                     56                     57
                      A                      A                      A
 Frequencies --    987.5166               989.6044              1000.1792
 Red. masses --      1.3592                 2.2239                 1.2669
 Frc consts  --      0.7810                 1.2832                 0.7467
 IR Inten    --      0.3010                 5.1366                 0.9491

                     58                     59                     60
                      A                      A                      A
 Frequencies --   1013.4305              1015.8281              1019.5393
 Red. masses --      6.3689                 6.1654                 1.2873
 Frc consts  --      3.8539                 3.7484                 0.7884
 IR Inten    --      7.8655                 0.4355                 0.0772

                     61                     62                     63
                      A                      A                      A
 Frequencies --   1040.0808              1046.8838              1051.9721
 Red. masses --      2.5791                 3.0887                 1.5758
 Frc consts  --      1.6438                 1.9945                 1.0275
 IR Inten    --     17.8816                24.6948                25.7711

                     64                     65                     66
                      A                      A                      A
 Frequencies --   1054.3985              1069.1786              1078.8163
 Red. masses --      2.0977                 2.3861                 3.4500
 Frc consts  --      1.3740                 1.6071                 2.3657
 IR Inten    --     20.9131               283.2244                43.0251

                     67                     68                     69
                      A                      A                      A
 Frequencies --   1084.2472              1110.5015              1112.2011
 Red. masses --      2.0613                 1.5952                 2.3858
 Frc consts  --      1.4278                 1.1590                 1.7388
 IR Inten    --     20.1480                17.4057                22.8104

                     70                     71                     72
                      A                      A                      A
 Frequencies --   1127.1192              1134.4541              1185.0375
 Red. masses --      4.2838                 1.7354                 1.0965
 Frc consts  --      3.2064                 1.3159                 0.9072
 IR Inten    --    219.5889                14.0828                 0.1654

                     73                     74                     75
                      A                      A                      A
 Frequencies --   1187.6159              1194.6336              1201.4995
 Red. masses --      1.3127                 1.0993                 1.1351
 Frc consts  --      1.0908                 0.9243                 0.9655
 IR Inten    --      2.7354                 0.1984                 0.4516

                     76                     77                     78
                      A                      A                      A
 Frequencies --   1204.3425              1205.4859              1232.5214
 Red. masses --      1.1606                 1.3315                 2.5035
 Frc consts  --      0.9918                 1.1400                 2.2407
 IR Inten    --      0.4183                 1.1640                 3.8933

                     79                     80                     81
                      A                      A                      A
 Frequencies --   1249.0809              1267.5972              1285.0960
 Red. masses --      2.5372                 2.0704                 4.2643
 Frc consts  --      2.3323                 1.9601                 4.1493
 IR Inten    --     95.6981                50.1554               304.2409

                     82                     83                     84
                      A                      A                      A
 Frequencies --   1317.6975              1343.0256              1347.4791
 Red. masses --      1.4572                 1.5101                 1.5763
 Frc consts  --      1.4907                 1.6048                 1.6863
 IR Inten    --      2.4758                 2.5382                11.6083

                     85                     86                     87
                      A                      A                      A
 Frequencies --   1360.1900              1363.0032              1368.2285
 Red. masses --      2.7001                 4.5973                 1.2660
 Frc consts  --      2.9433                 5.0320                 1.3963
 IR Inten    --      0.9600                 4.2326                10.5390

                     88                     89                     90
                      A                      A                      A
 Frequencies --   1404.7042              1460.4474              1470.0005
 Red. masses --      1.4383                 1.1300                 1.2007
 Frc consts  --      1.6722                 1.4200                 1.5287
 IR Inten    --      4.2710                28.0997                39.3932

                     91                     92                     93
                      A                      A                      A
 Frequencies --   1488.8002              1492.1691              1497.1684
 Red. masses --      1.1480                 2.1350                 2.1501
 Frc consts  --      1.4992                 2.8008                 2.8396
 IR Inten    --     17.5042                21.7181                 8.3579

                     94                     95                     96
                      A                      A                      A
 Frequencies --   1511.3801              1523.2692              1527.3179
 Red. masses --      1.0790                 2.0430                 1.1069
 Frc consts  --      1.4521                 2.7930                 1.5213
 IR Inten    --      2.4570                 4.7776                 9.3125

                     97                     98                     99
                      A                      A                      A
 Frequencies --   1541.7649              1640.9624              1641.0392
 Red. masses --      2.2416                 5.5043                 5.4849
 Frc consts  --      3.1394                 8.7327                 8.7028
 IR Inten    --     21.0245                 2.3661                 0.9256

                    100                    101                    102
                      A                      A                      A
 Frequencies --   1644.8244              1660.2512              3071.0708
 Red. masses --      5.7606                 5.7238                 1.0632
 Frc consts  --      9.1824                 9.2958                 5.9079
 IR Inten    --      0.1406                 9.9465                16.6527

                    103                    104                    105
                      A                      A                      A
 Frequencies --   3081.8423              3117.8814              3119.4891
 Red. masses --      1.0616                 1.0946                 1.0629
 Frc consts  --      5.9404                 6.2694                 6.0942
 IR Inten    --     46.8886                 9.9524                 8.0611

                    106                    107                    108
                      A                      A                      A
 Frequencies --   3124.3398              3136.2372              3188.9039
 Red. masses --      1.0588                 1.1008                 1.0870
 Frc consts  --      6.0895                 6.3792                 6.5125
 IR Inten    --      8.7092                37.3802                18.2647

                    109                    110                    111
                      A                      A                      A
 Frequencies --   3193.1327              3194.4216              3196.2997
 Red. masses --      1.0866                 1.1096                 1.1102
 Frc consts  --      6.5274                 6.6709                 6.6824
 IR Inten    --      2.3100                 7.9097                 2.4421

                    112                    113                    114
                      A                      A                      A
 Frequencies --   3204.1540              3209.4034              3217.0380
 Red. masses --      1.0900                 1.0941                 1.0864
 Frc consts  --      6.5935                 6.6396                 6.6244
 IR Inten    --      8.9768                70.8121                 0.0689

                    115                    116                    117
                      A                      A                      A
 Frequencies --   3223.4004              3224.5381              3232.9495
 Red. masses --      1.0974                 1.0892                 1.0930
 Frc consts  --      6.7181                 6.6725                 6.7306
 IR Inten    --     37.9049                12.0466                20.8626

                    118                    119                    120
                      A                      A                      A
 Frequencies --   3240.1213              3250.9158              3507.7798
 Red. masses --      1.0965                 1.0934                 1.0757
 Frc consts  --      6.7826                 6.8081                 7.7983
 IR Inten    --     17.7006                 6.0679               125.2543

 - Thermochemistry -
 -------------------
 Temperature   298.150 Kelvin.  Pressure   1.00000 Atm.
 Atom     1 has atomic number  8 and mass  15.99491

 Molecular mass:   349.08064 amu.
 Principal axes and moments of inertia in atomic units:
                           1         2         3
     Eigenvalues --  8019.890208296.18804**********
           X            0.96952   0.24499  -0.00359
           Y           -0.24500   0.96951  -0.00522
           Z            0.00220   0.00594   0.99998
 This molecule is an asymmetric top.
 Rotational symmetry number  1.
 Warning -- assumption of classical behavior for rotation
           may cause significant error
 Rotational temperatures (Kelvin)      0.01080     0.01044     0.00588
 Rotational constants (GHZ):           0.22503     0.21754     0.12249
 Zero-point vibrational energy     878773.8 (Joules/Mol)
                                  210.03197 (Kcal/Mol)
 Warning -- explicit consideration of  33 degrees of freedom as
           vibrations may cause significant error
 Vibrational temperatures:     23.00    25.78    33.88    57.68    63.28
          (Kelvin)             91.82   127.25   143.70   153.40   228.55
                              241.11   272.83   308.01   332.39   372.77
                              399.02   431.58   442.94   459.98   482.50
                              547.59   562.61   567.95   592.55   599.31
                              662.69   695.83   721.60   747.36   787.30
                              818.72   854.46   883.29   899.48   912.36
                              924.16  1004.40  1027.69  1031.68  1035.46
                             1096.61  1103.64  1147.86  1156.60  1187.33
                             1233.49  1235.58  1242.11  1244.18  1314.42
                             1340.20  1361.75  1396.00  1403.48  1420.82
                             1423.82  1439.03  1458.10  1461.55  1466.89
                             1496.44  1506.23  1513.55  1517.04  1538.31
                             1552.18  1559.99  1597.76  1600.21  1621.67
                             1632.23  1705.00  1708.71  1718.81  1728.69
                             1732.78  1734.43  1773.32  1797.15  1823.79
                             1848.97  1895.87  1932.31  1938.72  1957.01
                             1961.06  1968.58  2021.06  2101.26  2115.00
                             2142.05  2146.90  2154.09  2174.54  2191.64
                             2197.47  2218.26  2360.98  2361.09  2366.54
                             2388.73  4418.59  4434.08  4485.94  4488.25
                             4495.23  4512.35  4588.12  4594.21  4596.06
                             4598.76  4610.06  4617.62  4628.60  4637.75
                             4639.39  4651.49  4661.81  4677.34  5046.91

 Zero-point correction=                           0.334707 (Hartree/Particle)
 Thermal correction to Energy=                    0.356055
 Thermal correction to Enthalpy=                  0.356999
 Thermal correction to Gibbs Free Energy=         0.281030
 Sum of electronic and zero-point Energies=          -1735.607045
 Sum of electronic and thermal Energies=             -1735.585697
 Sum of electronic and thermal Enthalpies=           -1735.584753
 Sum of electronic and thermal Free Energies=        -1735.660722

                     E (Thermal)             CV                S
                      KCal/Mol        Cal/Mol-Kelvin    Cal/Mol-Kelvin
 Total                  223.428             82.693            159.890
 Electronic               0.000              0.000              0.000
 Translational            0.889              2.981             43.444
 Rotational               0.889              2.981             35.237
 Vibrational            221.650             76.731             81.208
 Vibration     1          0.593              1.986              7.079
 Vibration     2          0.593              1.986              6.852
 Vibration     3          0.593              1.985              6.310
 Vibration     4          0.594              1.981              5.255
 Vibration     5          0.595              1.980              5.071
 Vibration     6          0.597              1.972              4.336
 Vibration     7          0.601              1.957              3.694
 Vibration     8          0.604              1.949              3.457
 Vibration     9          0.605              1.944              3.330
 Vibration    10          0.621              1.893              2.563
 Vibration    11          0.624              1.882              2.462
 Vibration    12          0.633              1.854              2.231
 Vibration    13          0.644              1.820              2.009
 Vibration    14          0.653              1.794              1.871
 Vibration    15          0.668              1.747              1.668
 Vibration    16          0.678              1.715              1.550
 Vibration    17          0.692              1.674              1.417
 Vibration    18          0.698              1.659              1.374
 Vibration    19          0.706              1.636              1.312
 Vibration    20          0.716              1.605              1.234
 Vibration    21          0.750              1.512              1.037
 Vibration    22          0.759              1.489              0.996
 Vibration    23          0.762              1.481              0.982
 Vibration    24          0.776              1.445              0.920
 Vibration    25          0.780              1.434              0.904
 Vibration    26          0.818              1.337              0.764
 Vibration    27          0.840              1.286              0.700
 Vibration    28          0.857              1.247              0.654
 Vibration    29          0.874              1.207              0.611
 Vibration    30          0.902              1.146              0.550
 Vibration    31          0.925              1.098              0.506
 Vibration    32          0.951              1.045              0.460
 Vibration    33          0.973              1.002              0.426

 Optimization completed.
    -- Stationary point found.
 Normal termination of Gaussian 16 at Mon Sep 21 06:49:22 2020.

 ----------------------------------------------------------------------
 #p b3lyp/6-31G(d) scrf=(iefpcm,read,solvent=water) geom=allcheck guess
 =read
 ----------------------------------------------------------------------

 Structure from the checkpoint file:  "SM36_m0.n.10.pdb.xyz.mst.n.w.chk"
 --------------------
 SM36_m0.n.10.pdb.xyz
 --------------------
 Charge =  0 Multiplicity = 1

 SCF Done:  E(RB3LYP) =  -1735.94174727     A.U. after    7 cycles
 Normal termination of Gaussian 16 at Mon Sep 21 06:50:30 2020.

 -----------------------------
 #p B3LYP/6-31G* geom=allcheck
 -----------------------------

 Structure from the checkpoint file:  "SM36_m0.n.10.pdb.xyz.mst.n.w.chk"
 --------------------
 SM36_m0.n.10.pdb.xyz
 --------------------
 Charge =  0 Multiplicity = 1

 SCF Done:  E(RB3LYP) =  -1735.91454000     A.U. after   15 cycles
 Normal termination of Gaussian 16 at Mon Sep 21 06:51:52 2020.
 Gaussian 16:  ES64L-G16RevB.01 20-Dec-2017

 ----------------------------------------------------------------------
 #p mp2/aug-cc-pVDZ scf=(MaxCycle=2000,NoVarAcc,NoIncFock) maxdisk=120G
 B geom=allcheck
 ----------------------------------------------------------------------

 Structure from the checkpoint file:  "SM36_m0.n.10.pdb.xyz.mst.n.w.chk"
 --------------------
 SM36_m0.n.10.pdb.xyz
 --------------------
 Charge =  0 Multiplicity = 1

                         Standard orientation:
 ---------------------------------------------------------------------
 Center     Atomic      Atomic             Coordinates (Angstroms)
 Number     Number       Type             X           Y           Z
 ---------------------------------------------------------------------
      1          8           0       -0.112555   -3.969388    0.154927
      2         16           0       -0.028945   -2.581853   -0.335167
      3          7           0       -0.998729   -1.689149    0.714190
      4          6           0       -1.814514   -0.553836    0.237653
      5          6           0       -2.843526   -0.144575    1.321353
      6         16           0       -4.174121    0.169285    0.043647
      7          8           0       -4.084972    1.614676   -0.438883
      8          6           0       -2.892673   -0.864241   -0.838146
      9          6           0       -0.956717    0.646100   -0.199676
     10          6           0       -0.047468    1.238739    0.890296
     11          6           0        0.650594    2.496441    0.418760
     12          6           0       -0.033920    3.719847    0.375384
     13          6           0        0.595862    4.879495   -0.077550
     14          6           0        1.928146    4.835670   -0.496788
     15          6           0        2.621646    3.624918   -0.457965
     16          6           0        1.986737    2.465566   -0.003598
     17          6           0        1.638702   -1.996350   -0.055795
     18          6           0        2.184642   -2.064338    1.229341
     19          6           0        3.508134   -1.672750    1.417709
     20          6           0        4.269698   -1.229854    0.331520
     21          6           0        3.712899   -1.174373   -0.946571
     22          6           0        2.386272   -1.560551   -1.149001
     23          8           0       -0.371260   -2.290989   -1.738290
     24          1           0       -1.537277   -2.363645    1.259872
     25          1           0       -2.616714    0.730028    1.930534
     26          1           0       -3.176530   -0.969817    1.954083
     27          1           0       -2.702901   -0.531483   -1.858594
     28          1           0       -3.234633   -1.900596   -0.830027
     29          1           0       -1.657937    1.412476   -0.544832
     30          1           0       -0.358786    0.357293   -1.069940
     31          1           0        0.694592    0.498148    1.197391
     32          1           0       -0.649813    1.470526    1.775566
     33          1           0       -1.069110    3.762963    0.702850
     34          1           0        0.048951    5.816907   -0.099199
     35          1           0        2.420889    5.737001   -0.846788
     36          1           0        3.658191    3.581517   -0.777824
     37          1           0        2.533153    1.527246    0.028256
     38          1           0        1.587105   -2.409479    2.065017
     39          1           0        3.944634   -1.715016    2.409347
     40          1           0        5.300239   -0.928944    0.484171
     41          1           0        4.306928   -0.833345   -1.787026
     42          1           0        1.932382   -1.526478   -2.131461
 ---------------------------------------------------------------------

 SCF Done:  E(RHF) =  -1728.86887285     A.U. after   17 cycles
 E2 =    -0.3447256296D+01 EUMP2 =    -0.17323161291508D+04

 The electronic state is 1-A.
 Alpha  occ. eigenvalues --  -92.23806 -92.08387 -20.57177 -20.56819 -20.52579
 Alpha  occ. eigenvalues --  -15.62809 -11.32837 -11.29887 -11.29307 -11.28506
 Alpha  occ. eigenvalues --  -11.28322 -11.28205 -11.27910 -11.27387 -11.27250
 Alpha  occ. eigenvalues --  -11.24872 -11.24376 -11.24298 -11.24259 -11.24158
 Alpha  occ. eigenvalues --  -11.23905 -11.23848 -11.23742  -9.20609  -9.07211
 Alpha  occ. eigenvalues --   -6.89147  -6.89096  -6.88989  -6.75421  -6.75299
 Alpha  occ. eigenvalues --   -6.75172  -1.46794  -1.34738  -1.33401  -1.26343
 Alpha  occ. eigenvalues --   -1.19341  -1.15735  -1.13843  -1.07209  -1.06791
 Alpha  occ. eigenvalues --   -1.05383  -1.01435  -1.00344  -0.96336  -0.94038
 Alpha  occ. eigenvalues --   -0.90857  -0.86576  -0.85424  -0.82807  -0.82220
 Alpha  occ. eigenvalues --   -0.79665  -0.78050  -0.74952  -0.72250  -0.70801
 Alpha  occ. eigenvalues --   -0.69620  -0.68949  -0.66974  -0.66624  -0.65017
 Alpha  occ. eigenvalues --   -0.64434  -0.63528  -0.63327  -0.62406  -0.61107
 Alpha  occ. eigenvalues --   -0.60399  -0.58863  -0.58578  -0.58135  -0.57047
 Alpha  occ. eigenvalues --   -0.55637  -0.55088  -0.54781  -0.53974  -0.53123
 Alpha  occ. eigenvalues --   -0.52422  -0.52026  -0.50795  -0.50279  -0.50230
 Alpha  occ. eigenvalues --   -0.48641  -0.48411  -0.48001  -0.47507  -0.47151
 Alpha  occ. eigenvalues --   -0.44284  -0.40698  -0.37705  -0.36935  -0.36770
 Alpha  occ. eigenvalues --   -0.33496  -0.32623
 Alpha virt. eigenvalues --    0.02340   0.02773   0.03521   0.03960   0.04564
 Alpha virt. eigenvalues --    0.04635   0.04887   0.05494   0.06083   0.06284
 Alpha virt. eigenvalues --    0.06499   0.06642   0.06831   0.07587   0.08116

 Mulliken charges:
               1
     1  O   -1.186521
     2  S    2.754668
     3  N   -1.311477
     4  C    0.586802
     5  C    0.673436
     6  S    1.503386
     7  O   -1.212945
     8  C    0.438910
     9  C   -0.171098
    10  C    1.248143
    11  C    0.328916
    12  C    0.902759
    13  C   -0.069961
    14  C    0.611549
    15  C    0.177747
    16  C    0.820985
    17  C    0.647557
    18  C    0.615349
    19  C    0.115833
    20  C    0.821187
    21  C    0.323194
    22  C    0.477117
    23  O   -1.254453
    24  H   -0.116083
    25  H   -0.219695
    26  H   -0.324346
    27  H   -0.290261
    28  H   -0.272822
    29  H   -0.164113
    30  H   -0.146639
    31  H   -0.347043
    32  H   -0.261382
    33  H   -0.746552
    34  H   -0.488771
    35  H   -0.448295
    36  H   -0.513482
    37  H   -0.585671
    38  H   -0.714909
    39  H   -0.508963
    40  H   -0.489762
    41  H   -0.518543
    42  H   -0.683751
 Sum of Mulliken charges =  -0.00000

 Dipole moment (field-independent basis, Debye):
    X=              3.8087    Y=             -0.3364    Z=              3.4742  Tot=              5.1662
 Quadrupole moment (field-independent basis, Debye-Ang):
   XX=           -143.1509   YY=           -174.8322   ZZ=           -148.3884
   XY=             12.0742   XZ=             -9.3237   YZ=             -6.2755

 Normal termination of Gaussian 16 at Mon Sep 21 09:15:26 2020.
