 Gaussian 16, Revision B.01,

 ----------------------------------------------------------------------
 #p b3lyp/6-31G(d) opt freq NoSymm scf=(MaxCycle=2000,NoVarAcc,NoIncFoc
 k) scrf=(iefpcm,read,solvent=water)
 ----------------------------------------------------------------------

 -------------------
 SM36_m0.n.9.pdb.xyz
 -------------------
 Symbolic Z-matrix:
 Charge =  0 Multiplicity = 1

 SCF Done:  E(RB3LYP) =  -1735.93914547     A.U. after   13 cycles
 SCF Done:  E(RB3LYP) =  -1735.93922029     A.U. after   10 cycles
 SCF Done:  E(RB3LYP) =  -1735.93924208     A.U. after   10 cycles
 SCF Done:  E(RB3LYP) =  -1735.93923956     A.U. after    9 cycles
 SCF Done:  E(RB3LYP) =  -1735.93923457     A.U. after    9 cycles
 SCF Done:  E(RB3LYP) =  -1735.93924167     A.U. after    8 cycles
 SCF Done:  E(RB3LYP) =  -1735.93924208     A.U. after    7 cycles
 SCF Done:  E(RB3LYP) =  -1735.93923767     A.U. after    8 cycles
 SCF Done:  E(RB3LYP) =  -1735.93923299     A.U. after    7 cycles
 SCF Done:  E(RB3LYP) =  -1735.93924149     A.U. after    8 cycles
 SCF Done:  E(RB3LYP) =  -1735.93924204     A.U. after    7 cycles
 SCF Done:  E(RB3LYP) =  -1735.93923204     A.U. after    9 cycles
 SCF Done:  E(RB3LYP) =  -1735.93923127     A.U. after    7 cycles
 SCF Done:  E(RB3LYP) =  -1735.93924140     A.U. after    9 cycles
 SCF Done:  E(RB3LYP) =  -1735.93923187     A.U. after    9 cycles
 SCF Done:  E(RB3LYP) =  -1735.93924141     A.U. after    9 cycles
 Optimization completed.
    -- Stationary point found.
 Normal termination of Gaussian 16 at Mon Sep 21 06:18:39 2020.

 --------------------------------------------------------------------
 #P Geom=AllCheck Guess=TCheck SCRF=Check GenChk RB3LYP/6-31G(d) Freq
 --------------------------------------------------------------------

 Structure from the checkpoint file:  "SM36_m0.n.9.pdb.xyz.mst.n.w.chk"
 -------------------
 SM36_m0.n.9.pdb.xyz
 -------------------
 Charge =  0 Multiplicity = 1

 SCF Done:  E(RB3LYP) =  -1735.93924141     A.U. after    1 cycles

  Exact polarizability: 222.848 -22.070 348.045  -8.166   0.508 304.322
 Approx polarizability: 257.815 -27.221 375.062 -13.903   2.519 370.369

                      1                      2                      3
                      A                      A                      A
 Frequencies --      4.2688                17.2826                20.0704
 Red. masses --      4.1593                 4.4850                 4.7474
 Frc consts  --      0.0000                 0.0008                 0.0011
 IR Inten    --      0.6773                 0.5604                 0.7123

                      4                      5                      6
                      A                      A                      A
 Frequencies --     26.3145                38.9982                48.8958
 Red. masses --      5.1446                 4.4966                 8.3627
 Frc consts  --      0.0021                 0.0040                 0.0118
 IR Inten    --      0.9879                 0.6934                 4.3899

                      7                      8                      9
                      A                      A                      A
 Frequencies --     64.6846                98.7619               127.4471
 Red. masses --      5.9978                 5.8023                 4.8369
 Frc consts  --      0.0148                 0.0333                 0.0463
 IR Inten    --      7.9901                 6.2403                 2.5388

                     10                     11                     12
                      A                      A                      A
 Frequencies --    143.7476               160.3587               190.8539
 Red. masses --      3.1191                 6.2504                 4.7510
 Frc consts  --      0.0380                 0.0947                 0.1020
 IR Inten    --      2.6297                 0.4999                 5.8049

                     13                     14                     15
                      A                      A                      A
 Frequencies --    208.2494               228.2500               245.4188
 Red. masses --      6.2234                 5.6876                 9.2373
 Frc consts  --      0.1590                 0.1746                 0.3278
 IR Inten    --     10.6406                12.8846                 1.4597

                     16                     17                     18
                      A                      A                      A
 Frequencies --    295.9399               302.4340               306.6219
 Red. masses --      2.5683                 4.9718                 4.3332
 Frc consts  --      0.1325                 0.2679                 0.2400
 IR Inten    --      3.4161                12.1402                 0.8556

                     19                     20                     21
                      A                      A                      A
 Frequencies --    317.7089               348.4855               372.4274
 Red. masses --      5.1415                 2.3123                 3.4305
 Frc consts  --      0.3058                 0.1654                 0.2803
 IR Inten    --      4.9095                 6.7967                10.8865

                     22                     23                     24
                      A                      A                      A
 Frequencies --    381.6676               405.3529               412.3488
 Red. masses --      4.2220                 3.7014                 3.1917
 Frc consts  --      0.3624                 0.3583                 0.3197
 IR Inten    --      7.8927                12.0810                 1.7920

                     25                     26                     27
                      A                      A                      A
 Frequencies --    419.4856               464.3544               476.0378
 Red. masses --      2.9721                 3.0211                 4.9647
 Frc consts  --      0.3081                 0.3838                 0.6629
 IR Inten    --      0.0564                 6.0804                 6.6631

                     28                     29                     30
                      A                      A                      A
 Frequencies --    512.4353               523.0220               544.8624
 Red. masses --      3.5295                 2.3992                 3.9501
 Frc consts  --      0.5461                 0.3867                 0.6909
 IR Inten    --     35.0976                98.3345                93.6911

                     31                     32                     33
                      A                      A                      A
 Frequencies --    571.0453               594.8431               611.2305
 Red. masses --      7.5784                 5.0001                 3.8424
 Frc consts  --      1.4560                 1.0424                 0.8458
 IR Inten    --    160.3879                78.2670                94.7672

                     34                     35                     36
                      A                      A                      A
 Frequencies --    625.6682               635.0200               656.8578
 Red. masses --      6.3932                 6.3507                 4.3107
 Frc consts  --      1.4745                 1.5088                 1.0958
 IR Inten    --      1.8673                 0.2409                35.1394

                     37                     38                     39
                      A                      A                      A
 Frequencies --    697.4106               712.3757               718.8245
 Red. masses --      2.4339                 3.1951                 5.9328
 Frc consts  --      0.6975                 0.9553                 1.8062
 IR Inten    --     44.2534                12.1363                30.1066

                     40                     41                     42
                      A                      A                      A
 Frequencies --    722.7721               766.3264               773.7143
 Red. masses --      1.8323                 1.5083                 1.7323
 Frc consts  --      0.5640                 0.5219                 0.6110
 IR Inten    --     44.8017                27.6548                25.3998

                     43                     44                     45
                      A                      A                      A
 Frequencies --    775.9607               804.7784               812.8396
 Red. masses --      1.4543                 3.2166                 1.8273
 Frc consts  --      0.5159                 1.2275                 0.7113
 IR Inten    --      7.2005                 4.9719                 3.7287

                     46                     47                     48
                      A                      A                      A
 Frequencies --    841.2521               859.6201               864.9170
 Red. masses --      3.3038                 1.2748                 2.2402
 Frc consts  --      1.3776                 0.5550                 0.9874
 IR Inten    --     10.2278                 3.8033                66.0056

                     49                     50                     51
                      A                      A                      A
 Frequencies --    866.5813               907.8404               934.0948
 Red. masses --      1.2566                 3.3199                 1.4396
 Frc consts  --      0.5560                 1.6121                 0.7401
 IR Inten    --      1.0595               308.4018                18.8277

                     52                     53                     54
                      A                      A                      A
 Frequencies --    947.0498               961.5610               978.1415
 Red. masses --      1.3177                 2.0120                 1.3564
 Frc consts  --      0.6964                 1.0960                 0.7646
 IR Inten    --      1.9695                 3.1191                 0.0611

                     55                     56                     57
                      A                      A                      A
 Frequencies --    989.7234              1000.8147              1005.3788
 Red. masses --      1.3576                 2.0722                 1.2630
 Frc consts  --      0.7835                 1.2229                 0.7522
 IR Inten    --      0.4487                22.0082                 0.1510

                     58                     59                     60
                      A                      A                      A
 Frequencies --   1014.4357              1016.7412              1018.7232
 Red. masses --      6.3782                 6.2267                 1.2854
 Frc consts  --      3.8672                 3.7925                 0.7860
 IR Inten    --      8.4750                 0.7015                 0.1433

                     61                     62                     63
                      A                      A                      A
 Frequencies --   1046.0535              1048.8025              1055.0688
 Red. masses --      3.5040                 2.9017                 2.1646
 Frc consts  --      2.2590                 1.8806                 1.4197
 IR Inten    --    147.1509                 8.1028                16.3018

                     64                     65                     66
                      A                      A                      A
 Frequencies --   1059.0085              1068.6908              1077.8333
 Red. masses --      1.2530                 3.4025                 3.5571
 Frc consts  --      0.8280                 2.2896                 2.4347
 IR Inten    --     32.2540               203.5702                40.6169

                     67                     68                     69
                      A                      A                      A
 Frequencies --   1082.5315              1106.5216              1109.2100
 Red. masses --      1.9577                 2.8326                 1.5870
 Frc consts  --      1.3517                 2.0434                 1.1504
 IR Inten    --     43.4491                 4.8239                14.0788

                     70                     71                     72
                      A                      A                      A
 Frequencies --   1130.4868              1132.1245              1187.5419
 Red. masses --      3.8398                 1.6970                 1.3100
 Frc consts  --      2.8913                 1.2815                 1.0884
 IR Inten    --    231.3383                20.4399                 2.8031

                     73                     74                     75
                      A                      A                      A
 Frequencies --   1189.1132              1194.2030              1203.0535
 Red. masses --      1.0963                 1.0973                 1.1289
 Frc consts  --      0.9133                 0.9220                 0.9626
 IR Inten    --      0.1213                 0.3057                 0.4908

                     76                     77                     78
                      A                      A                      A
 Frequencies --   1204.5006              1229.9613              1239.5774
 Red. masses --      1.1662                 1.5653                 2.5005
 Frc consts  --      0.9969                 1.3952                 2.2637
 IR Inten    --      1.0843                22.3942                 6.7444

                     79                     80                     81
                      A                      A                      A
 Frequencies --   1244.0236              1245.5762              1276.0281
 Red. masses --      1.5904                 2.6778                 5.1231
 Frc consts  --      1.4501                 2.4478                 4.9147
 IR Inten    --     13.7307                75.1142               317.2936

                     82                     83                     84
                      A                      A                      A
 Frequencies --   1328.3389              1341.7751              1343.0256
 Red. masses --      1.4438                 1.4564                 1.4282
 Frc consts  --      1.5009                 1.5449                 1.5178
 IR Inten    --     23.0381                 3.7098                 1.6444

                     85                     86                     87
                      A                      A                      A
 Frequencies --   1360.6849              1365.7413              1373.2144
 Red. masses --      2.4284                 5.7362                 1.4048
 Frc consts  --      2.6490                 6.3040                 1.5608
 IR Inten    --      0.0020                 4.6467                 1.0148

                     88                     89                     90
                      A                      A                      A
 Frequencies --   1413.5001              1453.8641              1465.5914
 Red. masses --      1.4662                 1.1364                 1.1664
 Frc consts  --      1.7260                 1.4152                 1.4762
 IR Inten    --      9.1233                45.0069                18.7543

                     91                     92                     93
                      A                      A                      A
 Frequencies --   1492.2438              1494.2980              1498.9903
 Red. masses --      1.4096                 1.4896                 1.8624
 Frc consts  --      1.8493                 1.9597                 2.4655
 IR Inten    --     20.8694                12.0990                 4.6431

                     94                     95                     96
                      A                      A                      A
 Frequencies --   1503.9534              1515.6221              1524.8649
 Red. masses --      1.2058                 1.1025                 2.0681
 Frc consts  --      1.6070                 1.4922                 2.8333
 IR Inten    --      5.9147                 7.5557                 4.8397

                     97                     98                     99
                      A                      A                      A
 Frequencies --   1543.2777              1642.8468              1644.4166
 Red. masses --      2.2693                 5.4927                 5.5059
 Frc consts  --      3.1844                 8.7344                 8.7720
 IR Inten    --     19.5871                 1.6794                 2.8930

                    100                    101                    102
                      A                      A                      A
 Frequencies --   1646.9188              1662.2139              3073.0310
 Red. masses --      5.9014                 5.7345                 1.0593
 Frc consts  --      9.4308                 9.3352                 5.8941
 IR Inten    --      0.0545                 9.3902                 5.8841

                    103                    104                    105
                      A                      A                      A
 Frequencies --   3083.5137              3114.0378              3123.5362
 Red. masses --      1.0593                 1.0997                 1.0608
 Frc consts  --      5.9344                 6.2833                 6.0980
 IR Inten    --     64.2727                 0.0187                 4.5547

                    106                    107                    108
                      A                      A                      A
 Frequencies --   3126.8286              3133.0596              3190.8202
 Red. masses --      1.0586                 1.1034                 1.0869
 Frc consts  --      6.0980                 6.3816                 6.5197
 IR Inten    --      2.4820                59.1196                19.4313

                    109                    110                    111
                      A                      A                      A
 Frequencies --   3191.2553              3191.3071              3193.2985
 Red. masses --      1.1003                 1.0972                 1.1101
 Frc consts  --      6.6019                 6.5836                 6.6696
 IR Inten    --      7.2406                12.0457                 2.9779

                    112                    113                    114
                      A                      A                      A
 Frequencies --   3204.0475              3212.9994              3217.4557
 Red. masses --      1.0893                 1.0936                 1.0866
 Frc consts  --      6.5887                 6.6514                 6.6274
 IR Inten    --     12.9294                69.9473                 1.3612

                    115                    116                    117
                      A                      A                      A
 Frequencies --   3225.0257              3226.4744              3233.0028
 Red. masses --      1.0976                 1.0892                 1.0931
 Frc consts  --      6.7260                 6.6804                 6.7319
 IR Inten    --     33.4782                12.3408                22.1868

                    118                    119                    120
                      A                      A                      A
 Frequencies --   3241.7441              3250.4747              3502.9631
 Red. masses --      1.0965                 1.0935                 1.0759
 Frc consts  --      6.7889                 6.8069                 7.7782
 IR Inten    --     17.9114                 6.4024               128.3640

 - Thermochemistry -
 -------------------
 Temperature   298.150 Kelvin.  Pressure   1.00000 Atm.
 Atom     1 has atomic number  8 and mass  15.99491

 Molecular mass:   349.08064 amu.
 Principal axes and moments of inertia in atomic units:
                           1         2         3
     Eigenvalues --  8407.089528791.78708**********
           X            0.98826  -0.15262  -0.00748
           Y            0.15261   0.98828  -0.00130
           Z            0.00759   0.00015   0.99997
 This molecule is an asymmetric top.
 Rotational symmetry number  1.
 Warning -- assumption of classical behavior for rotation
           may cause significant error
 Rotational temperatures (Kelvin)      0.01030     0.00985     0.00580
 Rotational constants (GHZ):           0.21467     0.20528     0.12091
 Zero-point vibrational energy     878498.6 (Joules/Mol)
                                  209.96621 (Kcal/Mol)
 Warning -- explicit consideration of  33 degrees of freedom as
           vibrations may cause significant error
 Vibrational temperatures:      6.14    24.87    28.88    37.86    56.11
          (Kelvin)             70.35    93.07   142.10   183.37   206.82
                              230.72   274.60   299.62   328.40   353.10
                              425.79   435.14   441.16   457.11   501.39
                              535.84   549.13   583.21   593.28   603.55
                              668.10   684.91   737.28   752.51   783.94
                              821.61   855.85   879.42   900.20   913.65
                              945.07  1003.42  1024.95  1034.23  1039.91
                             1102.57  1113.20  1116.43  1157.90  1169.49
                             1210.37  1236.80  1244.42  1246.82  1306.18
                             1343.95  1362.59  1383.47  1407.33  1423.99
                             1439.95  1446.52  1459.55  1462.86  1465.72
                             1505.04  1508.99  1518.01  1523.68  1537.61
                             1550.76  1557.52  1592.04  1595.91  1626.52
                             1628.87  1708.61  1710.87  1718.19  1730.93
                             1733.01  1769.64  1783.48  1789.87  1792.11
                             1835.92  1911.18  1930.52  1932.31  1957.72
                             1965.00  1975.75  2033.71  2091.79  2108.66
                             2147.01  2149.96  2156.71  2163.85  2180.64
                             2193.94  2220.43  2363.69  2365.95  2369.55
                             2391.55  4421.41  4436.49  4480.41  4494.07
                             4498.81  4507.77  4590.88  4591.50  4591.58
                             4594.44  4609.91  4622.79  4629.20  4640.09
                             4642.18  4651.57  4664.15  4676.71  5039.98

 Zero-point correction=                           0.334602 (Hartree/Particle)
 Thermal correction to Energy=                    0.356094
 Thermal correction to Enthalpy=                  0.357038
 Thermal correction to Gibbs Free Energy=         0.278566
 Sum of electronic and zero-point Energies=          -1735.604639
 Sum of electronic and thermal Energies=             -1735.583147
 Sum of electronic and thermal Enthalpies=           -1735.582203
 Sum of electronic and thermal Free Energies=        -1735.660676

                     E (Thermal)             CV                S
                      KCal/Mol        Cal/Mol-Kelvin    Cal/Mol-Kelvin
 Total                  223.452             82.682            165.159
 Electronic               0.000              0.000              0.000
 Translational            0.889              2.981             43.444
 Rotational               0.889              2.981             35.355
 Vibrational            221.675             76.720             86.360
 Vibration     1          0.593              1.987              9.703
 Vibration     2          0.593              1.986              6.924
 Vibration     3          0.593              1.986              6.627
 Vibration     4          0.593              1.985              6.090
 Vibration     5          0.594              1.981              5.309
 Vibration     6          0.595              1.978              4.862
 Vibration     7          0.597              1.971              4.309
 Vibration     8          0.604              1.950              3.479
 Vibration     9          0.611              1.926              2.984
 Vibration    10          0.616              1.909              2.753
 Vibration    11          0.622              1.891              2.546
 Vibration    12          0.634              1.852              2.220
 Vibration    13          0.642              1.828              2.059
 Vibration    14          0.651              1.798              1.893
 Vibration    15          0.660              1.770              1.763
 Vibration    16          0.690              1.681              1.440
 Vibration    17          0.694              1.669              1.403
 Vibration    18          0.697              1.661              1.380
 Vibration    19          0.704              1.640              1.322
 Vibration    20          0.726              1.578              1.173
 Vibration    21          0.744              1.529              1.070
 Vibration    22          0.751              1.509              1.033
 Vibration    23          0.770              1.459              0.943
 Vibration    24          0.776              1.443              0.918
 Vibration    25          0.782              1.428              0.894
 Vibration    26          0.822              1.329              0.754
 Vibration    27          0.833              1.303              0.721
 Vibration    28          0.868              1.222              0.628
 Vibration    29          0.878              1.199              0.603
 Vibration    30          0.900              1.151              0.555
 Vibration    31          0.927              1.094              0.502
 Vibration    32          0.953              1.043              0.459
 Vibration    33          0.970              1.008              0.431

                           ! Non-Optimized Parameters !
 Normal termination of Gaussian 16 at Mon Sep 21 06:43:53 2020.

 ----------------------------------------------------------------------
 #p b3lyp/6-31G(d) scrf=(iefpcm,read,solvent=water) geom=allcheck guess
 =read
 ----------------------------------------------------------------------

 Structure from the checkpoint file:  "SM36_m0.n.9.pdb.xyz.mst.n.w.chk"
 -------------------
 SM36_m0.n.9.pdb.xyz
 -------------------
 Charge =  0 Multiplicity = 1

 SCF Done:  E(RB3LYP) =  -1735.93922517     A.U. after    6 cycles
 Normal termination of Gaussian 16 at Mon Sep 21 06:44:56 2020.

 -----------------------------
 #p B3LYP/6-31G* geom=allcheck
 -----------------------------

 Structure from the checkpoint file:  "SM36_m0.n.9.pdb.xyz.mst.n.w.chk"
 -------------------
 SM36_m0.n.9.pdb.xyz
 -------------------
 Charge =  0 Multiplicity = 1

 SCF Done:  E(RB3LYP) =  -1735.91082593     A.U. after   15 cycles
 Normal termination of Gaussian 16 at Mon Sep 21 06:46:23 2020.
 Gaussian 16:  ES64L-G16RevB.01 20-Dec-2017

 ----------------------------------------------------------------------
 #p mp2/aug-cc-pVDZ scf=(MaxCycle=2000,NoVarAcc,NoIncFock) maxdisk=120G
 B geom=allcheck
 ----------------------------------------------------------------------

 Structure from the checkpoint file:  "SM36_m0.n.9.pdb.xyz.mst.n.w.chk"
 -------------------
 SM36_m0.n.9.pdb.xyz
 -------------------
 Charge =  0 Multiplicity = 1

                         Standard orientation:
 ---------------------------------------------------------------------
 Center     Atomic      Atomic             Coordinates (Angstroms)
 Number     Number       Type             X           Y           Z
 ---------------------------------------------------------------------
      1          8           0       -3.858266    1.140379   -0.407247
      2         16           0       -2.496008    0.607164   -0.590596
      3          7           0       -1.556363    1.452421    0.520086
      4          6           0       -0.120299    1.727006    0.279701
      5          6           0        0.395623    2.629221    1.433058
      6         16           0        1.017101    3.964368    0.284775
      7          8           0        2.532752    3.876832    0.141373
      8          6           0        0.176000    2.750752   -0.861895
      9          6           0        0.636776    0.391054    0.160444
     10          6           0        2.160526    0.496658   -0.026158
     11          6           0        2.802771   -0.871665   -0.089278
     12          6           0        2.964700   -1.531932   -1.314318
     13          6           0        3.532946   -2.805788   -1.373522
     14          6           0        3.950592   -3.441472   -0.202308
     15          6           0        3.796177   -2.793612    1.025323
     16          6           0        3.227554   -1.519685    1.078658
     17          6           0       -2.462564   -1.081789   -0.016601
     18          6           0       -2.759663   -1.363996    1.318231
     19          6           0       -2.806150   -2.694375    1.725911
     20          6           0       -2.566192   -3.720151    0.807547
     21          6           0       -2.276595   -3.421083   -0.524359
     22          6           0       -2.225021   -2.092039   -0.946480
     23          8           0       -1.900843    0.631557   -1.938952
     24          1           0       -2.082683    2.291994    0.770886
     25          1           0        1.208808    2.215186    2.029880
     26          1           0       -0.380177    3.023113    2.091369
     27          1           0        0.857528    2.420339   -1.646926
     28          1           0       -0.708834    3.208083   -1.305297
     29          1           0        0.223514   -0.166099   -0.685421
     30          1           0        0.424271   -0.190024    1.063791
     31          1           0        2.598450    1.068745    0.796722
     32          1           0        2.385337    1.046491   -0.945170
     33          1           0        2.646272   -1.040404   -2.229414
     34          1           0        3.653202   -3.298447   -2.333257
     35          1           0        4.395515   -4.430308   -0.245931
     36          1           0        4.122650   -3.277069    1.940572
     37          1           0        3.115630   -1.018882    2.036421
     38          1           0       -2.937201   -0.561062    2.023811
     39          1           0       -3.027952   -2.930680    2.760175
     40          1           0       -2.603336   -4.753767    1.133653
     41          1           0       -2.089276   -4.217665   -1.235493
     42          1           0       -1.996905   -1.833760   -1.972956
 ---------------------------------------------------------------------

 SCF Done:  E(RHF) =  -1728.86548561     A.U. after   17 cycles
 E2 =    -0.3442345780D+01 EUMP2 =    -0.17323078313893D+04

 The electronic state is 1-A.
 Alpha  occ. eigenvalues --  -92.23608 -92.08290 -20.57003 -20.56575 -20.52610
 Alpha  occ. eigenvalues --  -15.62926 -11.33136 -11.29557 -11.29109 -11.28369
 Alpha  occ. eigenvalues --  -11.28173 -11.27900 -11.27589 -11.27064 -11.26931
 Alpha  occ. eigenvalues --  -11.25284 -11.25218 -11.24639 -11.24603 -11.24357
 Alpha  occ. eigenvalues --  -11.24275 -11.24256 -11.24193  -9.20433  -9.07126
 Alpha  occ. eigenvalues --   -6.88966  -6.88921  -6.88816  -6.75343  -6.75223
 Alpha  occ. eigenvalues --   -6.75085  -1.46624  -1.34465  -1.33302  -1.26531
 Alpha  occ. eigenvalues --   -1.19113  -1.16153  -1.13489  -1.07484  -1.06588
 Alpha  occ. eigenvalues --   -1.05125  -1.01867  -1.00825  -0.96605  -0.94099
 Alpha  occ. eigenvalues --   -0.91109  -0.86391  -0.85435  -0.83224  -0.82250
 Alpha  occ. eigenvalues --   -0.80367  -0.77311  -0.74778  -0.71730  -0.71118
 Alpha  occ. eigenvalues --   -0.69514  -0.68640  -0.66860  -0.66442  -0.65575
 Alpha  occ. eigenvalues --   -0.64722  -0.63577  -0.63209  -0.62337  -0.62041
 Alpha  occ. eigenvalues --   -0.61137  -0.59227  -0.58882  -0.57592  -0.56486
 Alpha  occ. eigenvalues --   -0.55663  -0.55338  -0.54537  -0.54185  -0.53313
 Alpha  occ. eigenvalues --   -0.52853  -0.51440  -0.50830  -0.50433  -0.50137
 Alpha  occ. eigenvalues --   -0.48946  -0.48596  -0.48440  -0.47474  -0.46899
 Alpha  occ. eigenvalues --   -0.44293  -0.40767  -0.37381  -0.36771  -0.36549
 Alpha  occ. eigenvalues --   -0.33936  -0.33019
 Alpha virt. eigenvalues --    0.02235   0.02887   0.03472   0.03688   0.04361
 Alpha virt. eigenvalues --    0.04588   0.04695   0.05263   0.06135   0.06279
 Alpha virt. eigenvalues --    0.06414   0.06566   0.06989   0.07332   0.07812

 Mulliken charges:
               1
     1  O   -1.213997
     2  S    2.940062
     3  N   -1.164116
     4  C    0.343829
     5  C    0.617648
     6  S    1.569020
     7  O   -1.193541
     8  C    0.282188
     9  C    0.234914
    10  C    0.946396
    11  C    0.982080
    12  C    0.746358
    13  C   -0.001367
    14  C    0.685954
    15  C   -0.041690
    16  C    0.698376
    17  C    0.655314
    18  C    0.449818
    19  C    0.296331
    20  C    0.775371
    21  C    0.358428
    22  C    0.424900
    23  O   -1.280990
    24  H   -0.089638
    25  H   -0.225818
    26  H   -0.312000
    27  H   -0.296173
    28  H   -0.319926
    29  H   -0.300218
    30  H   -0.301518
    31  H   -0.311733
    32  H   -0.260819
    33  H   -0.713733
    34  H   -0.494532
    35  H   -0.446689
    36  H   -0.493764
    37  H   -0.713190
    38  H   -0.720620
    39  H   -0.496795
    40  H   -0.460430
    41  H   -0.498883
    42  H   -0.654808
 Sum of Mulliken charges =  -0.00000

 Dipole moment (field-independent basis, Debye):
    X=             -1.3106    Y=             -4.6333    Z=              3.4353  Tot=              5.9149
 Quadrupole moment (field-independent basis, Debye-Ang):
   XX=           -183.6161   YY=           -146.3612   ZZ=           -142.2136
   XY=             -8.9581   XZ=             -9.1471   YZ=              3.7686

 Normal termination of Gaussian 16 at Mon Sep 21 10:01:07 2020.
