 Gaussian 16, Revision B.01,

 ----------------------------------------------------------------------
 #p b3lyp/6-31G(d) opt freq NoSymm scf=(MaxCycle=2000,NoVarAcc,NoIncFoc
 k) scrf=(iefpcm,read,solvent=water)
 ----------------------------------------------------------------------

 --------------------
 SM36_m0.n.11.pdb.xyz
 --------------------
 Symbolic Z-matrix:
 Charge =  0 Multiplicity = 1

 SCF Done:  E(RB3LYP) =  -1735.94034316     A.U. after   13 cycles
 SCF Done:  E(RB3LYP) =  -1735.94053974     A.U. after   10 cycles
 SCF Done:  E(RB3LYP) =  -1735.94049918     A.U. after   10 cycles
 SCF Done:  E(RB3LYP) =  -1735.94048330     A.U. after    8 cycles
 SCF Done:  E(RB3LYP) =  -1735.94053731     A.U. after    9 cycles
 SCF Done:  E(RB3LYP) =  -1735.94053986     A.U. after    8 cycles
 SCF Done:  E(RB3LYP) =  -1735.94049088     A.U. after   10 cycles
 SCF Done:  E(RB3LYP) =  -1735.94049682     A.U. after    8 cycles
 SCF Done:  E(RB3LYP) =  -1735.94053977     A.U. after   10 cycles
 SCF Done:  E(RB3LYP) =  -1735.94050453     A.U. after   10 cycles
 SCF Done:  E(RB3LYP) =  -1735.94051386     A.U. after   10 cycles
 SCF Done:  E(RB3LYP) =  -1735.94051825     A.U. after    7 cycles
 SCF Done:  E(RB3LYP) =  -1735.94054744     A.U. after    9 cycles
 SCF Done:  E(RB3LYP) =  -1735.94054876     A.U. after    8 cycles
 SCF Done:  E(RB3LYP) =  -1735.94051390     A.U. after   10 cycles
 SCF Done:  E(RB3LYP) =  -1735.94051821     A.U. after    7 cycles
 Optimization completed on the basis of negligible forces.
    -- Stationary point found.
 Normal termination of Gaussian 16 at Mon Sep 21 07:09:06 2020.

 --------------------------------------------------------------------
 #P Geom=AllCheck Guess=TCheck SCRF=Check GenChk RB3LYP/6-31G(d) Freq
 --------------------------------------------------------------------

 Structure from the checkpoint file:  "SM36_m0.n.11.pdb.xyz.mst.n.w.chk"
 --------------------
 SM36_m0.n.11.pdb.xyz
 --------------------
 Charge =  0 Multiplicity = 1

 SCF Done:  E(RB3LYP) =  -1735.94051821     A.U. after    1 cycles

  Exact polarizability: 331.871  -2.928 316.562   5.357  23.882 230.900
 Approx polarizability: 364.093  -6.361 371.840  -2.316  23.470 272.588

 ******    1 imaginary frequencies (negative Signs) ******

                      1                      2                      3
                      A                      A                      A
 Frequencies --    -10.6218                17.3123                18.5581
 Red. masses --      3.7364                 5.3166                 3.9243
 Frc consts  --      0.0002                 0.0009                 0.0008
 IR Inten    --      0.1176                 0.6761                 0.1165

                      4                      5                      6
                      A                      A                      A
 Frequencies --     36.1352                37.8480                62.1439
 Red. masses --      6.9322                 6.8516                 4.3755
 Frc consts  --      0.0053                 0.0058                 0.0100
 IR Inten    --      2.2979                 0.0824                 0.6409

                      7                      8                      9
                      A                      A                      A
 Frequencies --     75.0891               104.4503               131.2875
 Red. masses --      8.5095                 4.5212                 6.2720
 Frc consts  --      0.0283                 0.0291                 0.0637
 IR Inten    --     12.8802                 0.5166                 8.0067

                     10                     11                     12
                      A                      A                      A
 Frequencies --    159.3649               163.6063               176.3128
 Red. masses --      6.1608                 6.3469                 4.3845
 Frc consts  --      0.0922                 0.1001                 0.0803
 IR Inten    --      2.0843                 7.2928                 5.1008

                     13                     14                     15
                      A                      A                      A
 Frequencies --    210.8925               239.2852               265.5111
 Red. masses --      4.4771                 5.1966                 5.8218
 Frc consts  --      0.1173                 0.1753                 0.2418
 IR Inten    --      7.8019                 9.7309                 0.3147

                     16                     17                     18
                      A                      A                      A
 Frequencies --    287.8019               297.0986               305.6625
 Red. masses --      3.4195                 3.4316                 5.2458
 Frc consts  --      0.1669                 0.1785                 0.2888
 IR Inten    --      2.2373                 8.3180                 7.3350

                     19                     20                     21
                      A                      A                      A
 Frequencies --    339.3588               341.6490               364.3664
 Red. masses --      3.0686                 3.3266                 2.6349
 Frc consts  --      0.2082                 0.2288                 0.2061
 IR Inten    --      0.8691                16.4587                 6.0067

                     22                     23                     24
                      A                      A                      A
 Frequencies --    377.2974               407.8799               413.8038
 Red. masses --      3.0237                 3.7318                 3.0412
 Frc consts  --      0.2536                 0.3658                 0.3068
 IR Inten    --      2.8250                23.4759                 2.6507

                     25                     26                     27
                      A                      A                      A
 Frequencies --    418.1873               453.6014               476.4441
 Red. masses --      2.9565                 3.6411                 2.8033
 Frc consts  --      0.3046                 0.4414                 0.3749
 IR Inten    --      0.0358                14.3269                64.7724

                     28                     29                     30
                      A                      A                      A
 Frequencies --    502.2596               517.9793               548.4064
 Red. masses --      2.9402                 3.2397                 8.7338
 Frc consts  --      0.4370                 0.5121                 1.5476
 IR Inten    --     94.7797                18.9326                92.0221

                     31                     32                     33
                      A                      A                      A
 Frequencies --    568.6127               594.9020               611.0530
 Red. masses --      8.0427                 4.2268                 4.2266
 Frc consts  --      1.5321                 0.8814                 0.9298
 IR Inten    --    199.1961                36.4852                73.3501

                     34                     35                     36
                      A                      A                      A
 Frequencies --    626.1077               634.6657               637.9447
 Red. masses --      6.4167                 6.3080                 4.5525
 Frc consts  --      1.4820                 1.4970                 1.0916
 IR Inten    --      0.5587                 0.6110                22.8367

                     37                     38                     39
                      A                      A                      A
 Frequencies --    698.1319               712.7201               716.0083
 Red. masses --      2.4716                 2.9838                 1.9255
 Frc consts  --      0.7097                 0.8930                 0.5816
 IR Inten    --     46.7016                 3.5806                43.2847

                     40                     41                     42
                      A                      A                      A
 Frequencies --    717.6872               762.7385               768.9642
 Red. masses --      5.6656                 1.7966                 1.5158
 Frc consts  --      1.7193                 0.6158                 0.5281
 IR Inten    --     16.2848                22.3776                43.4957

                     43                     44                     45
                      A                      A                      A
 Frequencies --    783.5169               801.0847               828.0486
 Red. masses --      1.3624                 3.5087                 2.0887
 Frc consts  --      0.4928                 1.3266                 0.8438
 IR Inten    --     36.7567                19.2355                43.8125

                     46                     47                     48
                      A                      A                      A
 Frequencies --    846.2109               861.7981               863.0167
 Red. masses --      2.7216                 1.2481                 1.2532
 Frc consts  --      1.1482                 0.5462                 0.5499
 IR Inten    --     11.8242                 0.5010                 0.2980

                     49                     50                     51
                      A                      A                      A
 Frequencies --    884.0635               913.2647               933.7160
 Red. masses --      3.0314                 2.3766                 1.4917
 Frc consts  --      1.3959                 1.1679                 0.7663
 IR Inten    --    150.5033               101.2251                 6.3430

                     52                     53                     54
                      A                      A                      A
 Frequencies --    950.1066               974.4677               978.7014
 Red. masses --      1.3180                 1.3782                 2.1640
 Frc consts  --      0.7010                 0.7711                 1.2213
 IR Inten    --      2.6693                 6.1839               150.4592

                     55                     56                     57
                      A                      A                      A
 Frequencies --    991.8929               995.5307              1002.1576
 Red. masses --      1.3602                 2.2839                 1.2822
 Frc consts  --      0.7884                 1.3336                 0.7587
 IR Inten    --      1.0394                14.0913                 2.3252

                     58                     59                     60
                      A                      A                      A
 Frequencies --   1014.5913              1016.1714              1021.0301
 Red. masses --      6.1581                 6.1984                 1.2857
 Frc consts  --      3.7349                 3.7710                 0.7897
 IR Inten    --     10.1038                 0.1772                 0.1364

                     61                     62                     63
                      A                      A                      A
 Frequencies --   1039.2200              1048.2986              1054.2754
 Red. masses --      3.3691                 2.9138                 2.2006
 Frc consts  --      2.1438                 1.8866                 1.4411
 IR Inten    --      5.8772                21.3091                11.8464

                     64                     65                     66
                      A                      A                      A
 Frequencies --   1058.9759              1074.8007              1079.2829
 Red. masses --      1.4469                 2.6303                 3.2832
 Frc consts  --      0.9560                 1.7902                 2.2533
 IR Inten    --     90.0672               265.5275                25.8401

                     67                     68                     69
                      A                      A                      A
 Frequencies --   1086.3445              1106.5929              1126.1711
 Red. masses --      1.7389                 1.5927                 3.3412
 Frc consts  --      1.2091                 1.1491                 2.4967
 IR Inten    --     19.7252                19.7798               206.6269

                     70                     71                     72
                      A                      A                      A
 Frequencies --   1132.5593              1139.7124              1186.6367
 Red. masses --      1.9431                 2.6684                 1.0954
 Frc consts  --      1.4685                 2.0422                 0.9088
 IR Inten    --     20.4736                28.6848                 0.1433

                     73                     74                     75
                      A                      A                      A
 Frequencies --   1195.7282              1196.9654              1201.1925
 Red. masses --      1.1000                 1.2840                 1.1321
 Frc consts  --      0.9267                 1.0839                 0.9624
 IR Inten    --      0.4116                 2.1270                 0.3068

                     76                     77                     78
                      A                      A                      A
 Frequencies --   1203.2256              1220.0126              1236.2009
 Red. masses --      1.1755                 1.3578                 2.6843
 Frc consts  --      1.0027                 1.1907                 2.4169
 IR Inten    --      1.0843                 0.5302                 1.8006

                     79                     80                     81
                      A                      A                      A
 Frequencies --   1250.7664              1269.1668              1283.8361
 Red. masses --      3.7123                 2.0601                 2.2646
 Frc consts  --      3.4218                 1.9551                 2.1992
 IR Inten    --    119.7952               230.9630                90.6104

                     82                     83                     84
                      A                      A                      A
 Frequencies --   1322.7083              1340.8565              1345.0253
 Red. masses --      1.4727                 1.4255                 1.4151
 Frc consts  --      1.5180                 1.5100                 1.5083
 IR Inten    --      4.6544                 1.2310                34.6346

                     85                     86                     87
                      A                      A                      A
 Frequencies --   1360.6161              1364.6774              1369.3537
 Red. masses --      2.6424                 5.9572                 1.3812
 Frc consts  --      2.8821                 6.5366                 1.5260
 IR Inten    --      0.0440                 4.4971                 7.8807

                     88                     89                     90
                      A                      A                      A
 Frequencies --   1401.2333              1458.2339              1462.2884
 Red. masses --      1.4680                 1.1550                 1.1752
 Frc consts  --      1.6983                 1.4470                 1.4806
 IR Inten    --     12.5776                42.5507                77.1783

                     91                     92                     93
                      A                      A                      A
 Frequencies --   1481.1518              1493.4727              1498.3581
 Red. masses --      1.1295                 2.1439                 1.5303
 Frc consts  --      1.4600                 2.8174                 2.0242
 IR Inten    --      5.7642                24.3147                 4.2503

                     94                     95                     96
                      A                      A                      A
 Frequencies --   1500.1813              1521.4562              1523.5713
 Red. masses --      1.3560                 1.1070                 2.0790
 Frc consts  --      1.7980                 1.5099                 2.8433
 IR Inten    --      7.6175                 5.0614                 3.9852

                     97                     98                     99
                      A                      A                      A
 Frequencies --   1542.0159              1642.4979              1643.2095
 Red. masses --      2.2638                 5.4873                 5.4792
 Frc consts  --      3.1715                 8.7220                 8.7167
 IR Inten    --     20.4144                 1.4090                 3.4091

                    100                    101                    102
                      A                      A                      A
 Frequencies --   1646.0085              1661.0646              3061.4467
 Red. masses --      5.8721                 5.7411                 1.0590
 Frc consts  --      9.3736                 9.3330                 5.8479
 IR Inten    --      0.1409                10.4476                23.5066

                    103                    104                    105
                      A                      A                      A
 Frequencies --   3071.6051              3101.3119              3125.0316
 Red. masses --      1.0603                 1.1028                 1.1044
 Frc consts  --      5.8940                 6.2495                 6.3547
 IR Inten    --     50.2557                24.6479                29.7694

                    106                    107                    108
                      A                      A                      A
 Frequencies --   3128.4636              3131.2971              3190.2656
 Red. masses --      1.0564                 1.0583                 1.0867
 Frc consts  --      6.0915                 6.1138                 6.5165
 IR Inten    --     17.2470                 3.4190                17.4617

                    109                    110                    111
                      A                      A                      A
 Frequencies --   3190.8313              3201.7586              3203.2388
 Red. masses --      1.0880                 1.1108                 1.0892
 Frc consts  --      6.5267                 6.7089                 6.5850
 IR Inten    --     14.4057                 1.8547                11.7314

                    112                    113                    114
                      A                      A                      A
 Frequencies --   3203.9738              3211.7231              3217.6585
 Red. masses --      1.1112                 1.0936                 1.0866
 Frc consts  --      6.7207                 6.6467                 6.6283
 IR Inten    --      2.9998                71.8106                 0.9538

                    115                    116                    117
                      A                      A                      A
 Frequencies --   3223.6277              3227.4994              3235.5513
 Red. masses --      1.0977                 1.0897                 1.0937
 Frc consts  --      6.7208                 6.6877                 6.7458
 IR Inten    --     33.7829                16.6581                23.1536

                    118                    119                    120
                      A                      A                      A
 Frequencies --   3244.9063              3249.1774              3517.2879
 Red. masses --      1.0943                 1.0942                 1.0750
 Frc consts  --      6.7890                 6.8058                 7.8356
 IR Inten    --      8.8879                 7.8611               144.6593

 - Thermochemistry -
 -------------------
 Temperature   298.150 Kelvin.  Pressure   1.00000 Atm.
 Atom     1 has atomic number  8 and mass  15.99491

 Molecular mass:   349.08064 amu.
 Principal axes and moments of inertia in atomic units:
                           1         2         3
     Eigenvalues --  5296.88940********************
           X            0.99995   0.00406   0.00949
           Y           -0.00445   0.99912   0.04168
           Z           -0.00931  -0.04172   0.99909
 This molecule is an asymmetric top.
 Rotational symmetry number  1.
 Warning -- assumption of classical behavior for rotation
           may cause significant error
 Rotational temperatures (Kelvin)      0.01635     0.00578     0.00507
 Rotational constants (GHZ):           0.34072     0.12041     0.10557
    1 imaginary frequencies ignored.
 Zero-point vibrational energy     879034.6 (Joules/Mol)
                                  210.09430 (Kcal/Mol)
 Warning -- explicit consideration of  32 degrees of freedom as
           vibrations may cause significant error
 Vibrational temperatures:     24.91    26.70    51.99    54.45    89.41
          (Kelvin)            108.04   150.28   188.89   229.29   235.39
                              253.67   303.43   344.28   382.01   414.08
                              427.46   439.78   488.26   491.56   524.24
                              542.85   586.85   595.37   601.68   652.63
                              685.50   722.64   745.26   789.03   818.11
                              855.93   879.17   900.83   913.14   917.86
                             1004.46  1025.45  1030.18  1032.59  1097.41
                             1106.37  1127.31  1152.58  1191.38  1217.51
                             1239.94  1241.69  1271.97  1313.98  1343.41
                             1366.99  1402.04  1408.13  1427.11  1432.35
                             1441.88  1459.77  1462.04  1469.03  1495.21
                             1508.27  1516.87  1523.63  1546.40  1552.85
                             1563.01  1592.14  1620.31  1629.50  1639.79
                             1707.31  1720.39  1722.17  1728.25  1731.17
                             1755.33  1778.62  1799.57  1826.05  1847.15
                             1903.08  1929.19  1935.19  1957.62  1963.47
                             1970.19  2016.06  2098.07  2103.91  2131.05
                             2148.77  2155.80  2158.43  2189.04  2192.08
                             2218.62  2363.19  2364.21  2368.24  2389.90
                             4404.74  4419.35  4462.10  4496.22  4501.16
                             4505.24  4590.08  4590.89  4606.62  4608.75
                             4609.80  4620.95  4629.49  4638.08  4643.65
                             4655.24  4668.70  4674.84  5060.59

 Zero-point correction=                           0.334807 (Hartree/Particle)
 Thermal correction to Energy=                    0.355252
 Thermal correction to Enthalpy=                  0.356196
 Thermal correction to Gibbs Free Energy=         0.282984
 Sum of electronic and zero-point Energies=          -1735.605712
 Sum of electronic and thermal Energies=             -1735.585266
 Sum of electronic and thermal Enthalpies=           -1735.584322
 Sum of electronic and thermal Free Energies=        -1735.657535

                     E (Thermal)             CV                S
                      KCal/Mol        Cal/Mol-Kelvin    Cal/Mol-Kelvin
 Total                  222.924             80.641            154.089
 Electronic               0.000              0.000              0.000
 Translational            0.889              2.981             43.444
 Rotational               0.889              2.981             35.561
 Vibrational            221.146             74.679             75.084
 Vibration     1          0.593              1.986              6.921
 Vibration     2          0.593              1.986              6.783
 Vibration     3          0.594              1.982              5.460
 Vibration     4          0.594              1.982              5.369
 Vibration     5          0.597              1.972              4.388
 Vibration     6          0.599              1.966              4.015
 Vibration     7          0.605              1.946              3.370
 Vibration     8          0.612              1.922              2.927
 Vibration     9          0.621              1.892              2.557
 Vibration    10          0.623              1.887              2.508
 Vibration    11          0.628              1.872              2.367
 Vibration    12          0.643              1.824              2.036
 Vibration    13          0.657              1.780              1.808
 Vibration    14          0.671              1.736              1.625
 Vibration    15          0.685              1.696              1.487
 Vibration    16          0.691              1.679              1.433
 Vibration    17          0.696              1.663              1.386
 Vibration    18          0.719              1.597              1.215
 Vibration    19          0.721              1.592              1.204
 Vibration    20          0.738              1.546              1.103
 Vibration    21          0.748              1.519              1.050
 Vibration    22          0.772              1.453              0.934
 Vibration    23          0.777              1.440              0.913
 Vibration    24          0.781              1.431              0.898
 Vibration    25          0.812              1.353              0.785
 Vibration    26          0.833              1.302              0.720
 Vibration    27          0.858              1.245              0.652
 Vibration    28          0.873              1.210              0.615
 Vibration    29          0.904              1.143              0.547
 Vibration    30          0.925              1.099              0.507
 Vibration    31          0.953              1.043              0.459
 Vibration    32          0.970              1.008              0.431

 Optimization completed.
    -- Stationary point found.
 Normal termination of Gaussian 16 at Mon Sep 21 07:30:35 2020.

 ----------------------------------------------------------------------
 #p b3lyp/6-31G(d) scrf=(iefpcm,read,solvent=water) geom=allcheck guess
 =read
 ----------------------------------------------------------------------

 Structure from the checkpoint file:  "SM36_m0.n.11.pdb.xyz.mst.n.w.chk"
 --------------------
 SM36_m0.n.11.pdb.xyz
 --------------------
 Charge =  0 Multiplicity = 1

 SCF Done:  E(RB3LYP) =  -1735.94051094     A.U. after    5 cycles
 Normal termination of Gaussian 16 at Mon Sep 21 07:31:24 2020.

 -----------------------------
 #p B3LYP/6-31G* geom=allcheck
 -----------------------------

 Structure from the checkpoint file:  "SM36_m0.n.11.pdb.xyz.mst.n.w.chk"
 --------------------
 SM36_m0.n.11.pdb.xyz
 --------------------
 Charge =  0 Multiplicity = 1

 SCF Done:  E(RB3LYP) =  -1735.91545791     A.U. after   15 cycles
 Normal termination of Gaussian 16 at Mon Sep 21 07:32:42 2020.
 Gaussian 16:  ES64L-G16RevB.01 20-Dec-2017

 ----------------------------------------------------------------------
 #p mp2/aug-cc-pVDZ scf=(MaxCycle=2000,NoVarAcc,NoIncFock) maxdisk=120G
 B geom=allcheck
 ----------------------------------------------------------------------

 Structure from the checkpoint file:  "SM36_m0.n.11.pdb.xyz.mst.n.w.chk"
 --------------------
 SM36_m0.n.11.pdb.xyz
 --------------------
 Charge =  0 Multiplicity = 1

                         Standard orientation:
 ---------------------------------------------------------------------
 Center     Atomic      Atomic             Coordinates (Angstroms)
 Number     Number       Type             X           Y           Z
 ---------------------------------------------------------------------
      1          8           0       -2.378448   -0.870531    2.626097
      2         16           0       -2.246791   -0.045369    1.412441
      3          7           0       -0.646410   -0.212338    0.950214
      4          6           0        0.084113    0.803028    0.171263
      5          6           0        0.286881    2.199049    0.822519
      6         16           0        0.034554    3.064913   -0.814166
      7          8           0        1.370204    3.198443   -1.541011
      8          6           0       -0.660556    1.346371   -1.070581
      9          6           0        1.427976    0.182349   -0.259483
     10          6           0        2.340346   -0.265646    0.896874
     11          6           0        3.688055   -0.740529    0.399782
     12          6           0        4.717196    0.173813    0.134828
     13          6           0        5.951825   -0.258618   -0.351412
     14          6           0        6.177650   -1.617874   -0.581522
     15          6           0        5.161140   -2.538679   -0.320914
     16          6           0        3.927320   -2.101357    0.166423
     17          6           0       -3.159954   -0.806395    0.080429
     18          6           0       -2.751873   -2.042891   -0.424363
     19          6           0       -3.526803   -2.652830   -1.407997
     20          6           0       -4.691478   -2.033924   -1.869127
     21          6           0       -5.088849   -0.800135   -1.351694
     22          6           0       -4.321785   -0.177282   -0.366206
     23          8           0       -2.659865    1.369663    1.472189
     24          1           0       -0.124869   -0.560160    1.755457
     25          1           0        1.254682    2.412223    1.277651
     26          1           0       -0.533733    2.487172    1.479685
     27          1           0       -0.407227    0.910327   -2.037393
     28          1           0       -1.741117    1.421208   -0.951122
     29          1           0        1.943550    0.938660   -0.859718
     30          1           0        1.216813   -0.669782   -0.914296
     31          1           0        1.862556   -1.077753    1.454317
     32          1           0        2.478310    0.567180    1.595770
     33          1           0        4.549636    1.232103    0.314677
     34          1           0        6.737721    0.464263   -0.546163
     35          1           0        7.138060   -1.956022   -0.957020
     36          1           0        5.328717   -3.597378   -0.492440
     37          1           0        3.140983   -2.822208    0.373027
     38          1           0       -1.840478   -2.506653   -0.067043
     39          1           0       -3.219910   -3.608894   -1.816654
     40          1           0       -5.288190   -2.514651   -2.636434
     41          1           0       -5.991591   -0.320420   -1.712944
     42          1           0       -4.605601    0.783143    0.045627
 ---------------------------------------------------------------------

 SCF Done:  E(RHF) =  -1728.86889402     A.U. after   16 cycles
 E2 =    -0.3442339421D+01 EUMP2 =    -0.17323112334440D+04

 The electronic state is 1-A.
 Alpha  occ. eigenvalues --  -92.23892 -92.08021 -20.57241 -20.56781 -20.52227
 Alpha  occ. eigenvalues --  -15.62665 -11.32752 -11.29952 -11.28570 -11.28451
 Alpha  occ. eigenvalues --  -11.28345 -11.28003 -11.27843 -11.27475 -11.27391
 Alpha  occ. eigenvalues --  -11.25553 -11.25489 -11.25039 -11.24728 -11.24622
 Alpha  occ. eigenvalues --  -11.24490 -11.24340 -11.24290  -9.20699  -9.06824
 Alpha  occ. eigenvalues --   -6.89236  -6.89191  -6.89085  -6.75033  -6.74910
 Alpha  occ. eigenvalues --   -6.74780  -1.46882  -1.34719  -1.33038  -1.26483
 Alpha  occ. eigenvalues --   -1.19512  -1.16301  -1.13778  -1.07834  -1.07022
 Alpha  occ. eigenvalues --   -1.05543  -1.01963  -1.00823  -0.95915  -0.94154
 Alpha  occ. eigenvalues --   -0.91026  -0.86789  -0.85378  -0.83407  -0.83098
 Alpha  occ. eigenvalues --   -0.80169  -0.77725  -0.74983  -0.72457  -0.70938
 Alpha  occ. eigenvalues --   -0.69938  -0.68860  -0.66823  -0.66214  -0.65423
 Alpha  occ. eigenvalues --   -0.64831  -0.64246  -0.63648  -0.62556  -0.61678
 Alpha  occ. eigenvalues --   -0.60347  -0.59846  -0.58934  -0.57414  -0.56940
 Alpha  occ. eigenvalues --   -0.55869  -0.55213  -0.54375  -0.53948  -0.53411
 Alpha  occ. eigenvalues --   -0.53295  -0.51964  -0.51200  -0.50566  -0.50266
 Alpha  occ. eigenvalues --   -0.49266  -0.48975  -0.48245  -0.47928  -0.46708
 Alpha  occ. eigenvalues --   -0.44033  -0.40343  -0.37700  -0.37071  -0.36588
 Alpha  occ. eigenvalues --   -0.34000  -0.33163
 Alpha virt. eigenvalues --    0.02258   0.02999   0.03638   0.03979   0.04178
 Alpha virt. eigenvalues --    0.04665   0.05106   0.05338   0.05787   0.06302
 Alpha virt. eigenvalues --    0.06366   0.06577   0.06841   0.07534   0.07884

 Mulliken charges:
               1
     1  O   -1.201772
     2  S    2.890612
     3  N   -1.166196
     4  C    0.766914
     5  C    0.227321
     6  S    1.525327
     7  O   -1.252492
     8  C    0.349953
     9  C    0.007793
    10  C    0.836438
    11  C    1.204134
    12  C    0.421057
    13  C    0.035374
    14  C    0.649653
    15  C    0.027330
    16  C    0.580236
    17  C    0.704404
    18  C    0.539979
    19  C    0.265840
    20  C    0.724377
    21  C    0.398080
    22  C    0.243529
    23  O   -1.284391
    24  H   -0.081964
    25  H   -0.293436
    26  H   -0.253528
    27  H   -0.309666
    28  H   -0.188131
    29  H   -0.071364
    30  H   -0.241992
    31  H   -0.356049
    32  H   -0.281898
    33  H   -0.679010
    34  H   -0.466932
    35  H   -0.438007
    36  H   -0.467572
    37  H   -0.666397
    38  H   -0.698174
    39  H   -0.481804
    40  H   -0.441227
    41  H   -0.454685
    42  H   -0.621665
 Sum of Mulliken charges =  -0.00000

 Dipole moment (field-independent basis, Debye):
    X=             -1.6232    Y=             -4.0865    Z=             -2.1852  Tot=              4.9101
 Quadrupole moment (field-independent basis, Debye-Ang):
   XX=           -140.9107   YY=           -156.2306   ZZ=           -165.1334
   XY=             -2.7960   XZ=             23.2156   YZ=             15.7204

 Normal termination of Gaussian 16 at Mon Sep 21 09:48:03 2020.
