 Gaussian 16, Revision B.01,

 ----------------------------------------------------------------------
 #p b3lyp/6-31G(d) opt freq NoSymm scf=(MaxCycle=2000,NoVarAcc,NoIncFoc
 k) scrf=(iefpcm,read,solvent=water)
 ----------------------------------------------------------------------

 -------------------
 SM36_m0.n.8.pdb.xyz
 -------------------
 Symbolic Z-matrix:
 Charge =  0 Multiplicity = 1

 SCF Done:  E(RB3LYP) =  -1735.93843507     A.U. after   13 cycles
 SCF Done:  E(RB3LYP) =  -1735.93846218     A.U. after    8 cycles
 SCF Done:  E(RB3LYP) =  -1735.93844032     A.U. after    8 cycles
 SCF Done:  E(RB3LYP) =  -1735.93846394     A.U. after    8 cycles
 SCF Done:  E(RB3LYP) =  -1735.93845715     A.U. after    8 cycles
 SCF Done:  E(RB3LYP) =  -1735.93845459     A.U. after    7 cycles
 SCF Done:  E(RB3LYP) =  -1735.93845386     A.U. after    6 cycles
 Optimization completed.
    -- Stationary point found.
 Normal termination of Gaussian 16 at Mon Sep 21 18:45:42 2020.

 --------------------------------------------------------------------
 #P Geom=AllCheck Guess=TCheck SCRF=Check GenChk RB3LYP/6-31G(d) Freq
 --------------------------------------------------------------------

 Structure from the checkpoint file:  "SM36_m0.n.8.pdb.xyz.mst.n.w.chk"
 -------------------
 SM36_m0.n.8.pdb.xyz
 -------------------
 Charge =  0 Multiplicity = 1

 SCF Done:  E(RB3LYP) =  -1735.93845386     A.U. after    1 cycles

  Exact polarizability: 270.653  25.532 333.656  15.054 -32.586 274.523
 Approx polarizability: 313.200  27.831 371.522  20.503 -31.805 327.404

                      1                      2                      3
                      A                      A                      A
 Frequencies --     15.1662                19.3160                36.6680
 Red. masses --      5.4642                 6.5210                 4.9248
 Frc consts  --      0.0007                 0.0014                 0.0039
 IR Inten    --      0.7326                 0.7282                 0.6025

                      4                      5                      6
                      A                      A                      A
 Frequencies --     38.1615                41.6009                52.0345
 Red. masses --      4.2574                 4.3300                 5.9323
 Frc consts  --      0.0037                 0.0044                 0.0095
 IR Inten    --      0.4937                 0.5674                 0.4823

                      7                      8                      9
                      A                      A                      A
 Frequencies --     84.9318               120.2413               130.7169
 Red. masses --      9.3073                 4.9889                 5.5312
 Frc consts  --      0.0396                 0.0425                 0.0557
 IR Inten    --     12.5474                 1.6674                 9.2510

                     10                     11                     12
                      A                      A                      A
 Frequencies --    156.2763               172.1398               193.0589
 Red. masses --      6.1665                 5.4534                 4.9962
 Frc consts  --      0.0887                 0.0952                 0.1097
 IR Inten    --      4.7968                 5.7017                16.7907

                     13                     14                     15
                      A                      A                      A
 Frequencies --    203.5927               253.9321               268.3299
 Red. masses --      4.9988                 8.9192                 4.7626
 Frc consts  --      0.1221                 0.3389                 0.2020
 IR Inten    --      3.0281                 5.0781                 2.5572

                     16                     17                     18
                      A                      A                      A
 Frequencies --    292.6319               306.4680               318.0473
 Red. masses --      2.9568                 6.0632                 2.5649
 Frc consts  --      0.1492                 0.3355                 0.1529
 IR Inten    --      5.0463                 8.6857                 4.7056

                     19                     20                     21
                      A                      A                      A
 Frequencies --    329.1380               341.9967               374.0056
 Red. masses --      2.9924                 3.0288                 2.2203
 Frc consts  --      0.1910                 0.2087                 0.1830
 IR Inten    --      3.0120                10.0965                20.4871

                     22                     23                     24
                      A                      A                      A
 Frequencies --    397.9418               405.3873               414.5690
 Red. masses --      5.3316                 3.1815                 3.0341
 Frc consts  --      0.4974                 0.3081                 0.3072
 IR Inten    --      2.5004                 3.3202                 0.3270

                     25                     26                     27
                      A                      A                      A
 Frequencies --    418.7976               440.0210               480.6220
 Red. masses --      2.9502                 2.3107                 2.9089
 Frc consts  --      0.3049                 0.2636                 0.3959
 IR Inten    --      0.0353                54.3058                87.7985

                     28                     29                     30
                      A                      A                      A
 Frequencies --    490.2902               513.9096               546.3300
 Red. masses --      3.2845                 3.7718                 8.3476
 Frc consts  --      0.4652                 0.5869                 1.4680
 IR Inten    --     39.1934                15.2876               108.1008

                     31                     32                     33
                      A                      A                      A
 Frequencies --    564.6163               583.4299               600.8243
 Red. masses --      3.8465                 4.9197                 4.1950
 Frc consts  --      0.7225                 0.9867                 0.8922
 IR Inten    --     81.8844               185.9854                17.0305

                     34                     35                     36
                      A                      A                      A
 Frequencies --    625.1910               631.4514               634.3514
 Red. masses --      6.4254                 4.5481                 6.2987
 Frc consts  --      1.4797                 1.0685                 1.4933
 IR Inten    --      0.1002                15.5869                 0.5820

                     37                     38                     39
                      A                      A                      A
 Frequencies --    698.4293               712.8495               715.2703
 Red. masses --      2.4980                 3.2020                 2.7833
 Frc consts  --      0.7179                 0.9587                 0.8390
 IR Inten    --     46.4499                12.5303                14.3048

                     40                     41                     42
                      A                      A                      A
 Frequencies --    716.9084               743.3652               768.1289
 Red. masses --      3.9685                 1.8916                 1.4995
 Frc consts  --      1.2017                 0.6159                 0.5213
 IR Inten    --     23.9339                56.4626                37.7442

                     43                     44                     45
                      A                      A                      A
 Frequencies --    778.1105               779.7389               828.9594
 Red. masses --      2.3438                 2.9293                 1.8223
 Frc consts  --      0.8361                 1.0493                 0.7378
 IR Inten    --     10.1761                18.3680                41.9031

                     46                     47                     48
                      A                      A                      A
 Frequencies --    858.5813               860.7839               863.5001
 Red. masses --      2.6829                 1.3223                 1.2540
 Frc consts  --      1.1652                 0.5773                 0.5509
 IR Inten    --    112.8884                11.7714                 0.0163

                     49                     50                     51
                      A                      A                      A
 Frequencies --    906.1156               919.2233               949.0585
 Red. masses --      1.8208                 2.0386                 1.3951
 Frc consts  --      0.8808                 1.0149                 0.7404
 IR Inten    --     67.8932                93.9326                 5.6736

                     52                     53                     54
                      A                      A                      A
 Frequencies --    950.1786               958.1769               975.4703
 Red. masses --      1.8764                 2.1230                 1.3761
 Frc consts  --      0.9981                 1.1484                 0.7715
 IR Inten    --      7.7552                35.1162                 5.1694

                     55                     56                     57
                      A                      A                      A
 Frequencies --    982.6507               990.9001              1003.3635
 Red. masses --      2.1317                 1.3547                 1.2578
 Frc consts  --      1.2127                 0.7837                 0.7460
 IR Inten    --    150.3167                 0.3764                 1.1867

                     58                     59                     60
                      A                      A                      A
 Frequencies --   1012.8817              1016.5759              1020.3866
 Red. masses --      6.3352                 6.0973                 1.2821
 Frc consts  --      3.8294                 3.7125                 0.7865
 IR Inten    --      9.8483                 1.3961                 0.0361

                     61                     62                     63
                      A                      A                      A
 Frequencies --   1042.6065              1046.2343              1056.0579
 Red. masses --      3.3862                 3.0575                 1.6433
 Frc consts  --      2.1687                 1.9718                 1.0798
 IR Inten    --      5.0682                20.5284                29.6533

                     64                     65                     66
                      A                      A                      A
 Frequencies --   1058.9049              1069.0366              1077.5670
 Red. masses --      1.5612                 2.8683                 3.5579
 Frc consts  --      1.0314                 1.9314                 2.4341
 IR Inten    --      2.5844               313.5027                51.9876

                     67                     68                     69
                      A                      A                      A
 Frequencies --   1093.4044              1107.9602              1116.2009
 Red. masses --      1.9615                 1.5855                 2.1653
 Frc consts  --      1.3817                 1.1467                 1.5895
 IR Inten    --     24.3567                12.5695                 9.4208

                     70                     71                     72
                      A                      A                      A
 Frequencies --   1125.5005              1137.9281              1185.8334
 Red. masses --      4.1474                 2.0484                 1.0929
 Frc consts  --      3.0954                 1.5627                 0.9055
 IR Inten    --    243.2433                 7.6516                 0.2205

                     73                     74                     75
                      A                      A                      A
 Frequencies --   1190.6480              1197.3177              1202.2950
 Red. masses --      1.0980                 1.2901                 1.1630
 Frc consts  --      0.9171                 1.0897                 0.9905
 IR Inten    --      0.4349                 1.5557                 0.5598

                     76                     77                     78
                      A                      A                      A
 Frequencies --   1204.8820              1215.6705              1228.1235
 Red. masses --      1.1284                 1.2685                 2.3582
 Frc consts  --      0.9651                 1.1045                 2.0956
 IR Inten    --      0.6129                22.7911                 0.7214

                     79                     80                     81
                      A                      A                      A
 Frequencies --   1245.8723              1263.5994              1288.2127
 Red. masses --      2.4669                 2.0531                 2.6681
 Frc consts  --      2.2560                 1.9315                 2.6088
 IR Inten    --     34.1424               217.1429                89.2688

                     82                     83                     84
                      A                      A                      A
 Frequencies --   1315.1469              1341.7253              1352.8818
 Red. masses --      1.5976                 1.5536                 2.5618
 Frc consts  --      1.6280                 1.6478                 2.7626
 IR Inten    --    117.2898                 2.2857                 7.1392

                     85                     86                     87
                      A                      A                      A
 Frequencies --   1360.2271              1361.6678              1391.2737
 Red. masses --      4.3166                 1.7183                 1.4289
 Frc consts  --      4.7056                 1.8771                 1.6296
 IR Inten    --      4.2556                 0.2951                 7.9065

                     88                     89                     90
                      A                      A                      A
 Frequencies --   1409.1053              1452.1400              1455.6290
 Red. masses --      1.4194                 1.1034                 1.2132
 Frc consts  --      1.6606                 1.3709                 1.5146
 IR Inten    --     11.8092                17.0012                68.7461

                     91                     92                     93
                      A                      A                      A
 Frequencies --   1475.7995              1490.0383              1494.0201
 Red. masses --      1.1426                 2.1619                 1.6245
 Frc consts  --      1.4663                 2.8280                 2.1364
 IR Inten    --     15.3450                21.7706                 6.1363

                     94                     95                     96
                      A                      A                      A
 Frequencies --   1505.6036              1516.1833              1521.9962
 Red. masses --      1.3252                 1.0945                 2.0512
 Frc consts  --      1.7699                 1.4824                 2.7995
 IR Inten    --     13.2344                 9.0690                 5.0440

                     97                     98                     99
                      A                      A                      A
 Frequencies --   1542.6423              1639.0802              1640.9035
 Red. masses --      2.2394                 5.4432                 5.5170
 Frc consts  --      3.1398                 8.6160                 8.7522
 IR Inten    --     18.2387                 3.0447                 1.2006

                    100                    101                    102
                      A                      A                      A
 Frequencies --   1641.4354              1661.6391              3056.6261
 Red. masses --      5.8042                 5.6983                 1.0656
 Frc consts  --      9.2138                 9.2698                 5.8660
 IR Inten    --      0.0323                 9.0165                15.8436

                    103                    104                    105
                      A                      A                      A
 Frequencies --   3068.3047              3108.3618              3122.7538
 Red. masses --      1.0639                 1.0992                 1.0937
 Frc consts  --      5.9012                 6.2574                 6.2837
 IR Inten    --     80.8438                25.7195                20.2066

                    106                    107                    108
                      A                      A                      A
 Frequencies --   3125.4719              3137.9651              3193.1917
 Red. masses --      1.0610                 1.0596                 1.0856
 Frc consts  --      6.1067                 6.1472                 6.5220
 IR Inten    --     11.3135                 4.9251                11.2632

                    109                    110                    111
                      A                      A                      A
 Frequencies --   3196.7591              3203.2347              3205.4984
 Red. masses --      1.0868                 1.1112                 1.0904
 Frc consts  --      6.5438                 6.7178                 6.6011
 IR Inten    --      2.9252                 1.8912                23.1589

                    112                    113                    114
                      A                      A                      A
 Frequencies --   3211.8399              3213.7448              3219.5317
 Red. masses --      1.0942                 1.0865                 1.1078
 Frc consts  --      6.6506                 6.6113                 6.7656
 IR Inten    --     79.2804                 0.3046                 0.9530

                    115                    116                    117
                      A                      A                      A
 Frequencies --   3222.0262              3223.0803              3230.4787
 Red. masses --      1.0895                 1.0978                 1.0933
 Frc consts  --      6.6643                 6.7193                 6.7221
 IR Inten    --     14.1917                29.1478                23.3524

                    118                    119                    120
                      A                      A                      A
 Frequencies --   3237.8890              3248.5651              3524.0316
 Red. masses --      1.0961                 1.0932                 1.0759
 Frc consts  --      6.7709                 6.7974                 7.8725
 IR Inten    --     15.1571                 5.5320               153.2021

 - Thermochemistry -
 -------------------
 Temperature   298.150 Kelvin.  Pressure   1.00000 Atm.
 Atom     1 has atomic number  8 and mass  15.99491

 Molecular mass:   349.08064 amu.
 Principal axes and moments of inertia in atomic units:
                           1         2         3
     Eigenvalues --  6510.990529170.59647**********
           X            0.99955   0.02668  -0.01398
           Y           -0.02692   0.99949  -0.01741
           Z            0.01351   0.01777   0.99975
 This molecule is an asymmetric top.
 Rotational symmetry number  1.
 Warning -- assumption of classical behavior for rotation
           may cause significant error
 Rotational temperatures (Kelvin)      0.01330     0.00944     0.00687
 Rotational constants (GHZ):           0.27718     0.19680     0.14305
 Zero-point vibrational energy     879124.5 (Joules/Mol)
                                  210.11580 (Kcal/Mol)
 Warning -- explicit consideration of  33 degrees of freedom as
           vibrations may cause significant error
 Vibrational temperatures:     21.82    27.79    52.76    54.91    59.85
          (Kelvin)             74.87   122.20   173.00   188.07   224.85
                              247.67   277.77   292.92   365.35   386.07
                              421.03   440.94   457.60   473.56   492.06
                              538.11   572.55   583.26   596.47   602.56
                              633.09   691.51   705.42   739.40   786.05
                              812.36   839.43   864.45   899.51   908.52
                              912.69  1004.88  1025.63  1029.11  1031.47
                             1069.54  1105.17  1119.53  1121.87  1192.69
                             1235.31  1238.48  1242.38  1303.70  1322.56
                             1365.48  1367.10  1378.60  1403.48  1413.82
                             1425.68  1443.62  1457.31  1462.63  1468.11
                             1500.08  1505.30  1519.43  1523.53  1538.11
                             1550.38  1573.17  1594.11  1605.96  1619.34
                             1637.22  1706.15  1713.08  1722.67  1729.83
                             1733.56  1749.08  1767.00  1792.53  1818.04
                             1853.45  1892.20  1930.44  1946.50  1957.06
                             1959.14  2001.73  2027.39  2089.31  2094.33
                             2123.35  2143.83  2149.56  2166.23  2181.45
                             2189.81  2219.52  2358.27  2360.89  2361.66
                             2390.73  4397.80  4414.61  4472.24  4492.95
                             4496.86  4514.83  4594.29  4599.42  4608.74
                             4612.00  4621.12  4623.86  4632.19  4635.78
                             4637.29  4647.94  4658.60  4673.96  5070.30

 Zero-point correction=                           0.334841 (Hartree/Particle)
 Thermal correction to Energy=                    0.356063
 Thermal correction to Enthalpy=                  0.357008
 Thermal correction to Gibbs Free Energy=         0.281779
 Sum of electronic and zero-point Energies=          -1735.603613
 Sum of electronic and thermal Energies=             -1735.582390
 Sum of electronic and thermal Enthalpies=           -1735.581446
 Sum of electronic and thermal Free Energies=        -1735.656674

                     E (Thermal)             CV                S
                      KCal/Mol        Cal/Mol-Kelvin    Cal/Mol-Kelvin
 Total                  223.433             82.668            158.331
 Electronic               0.000              0.000              0.000
 Translational            0.889              2.981             43.444
 Rotational               0.889              2.981             34.976
 Vibrational            221.656             76.706             79.911
 Vibration     1          0.593              1.986              7.184
 Vibration     2          0.593              1.986              6.703
 Vibration     3          0.594              1.982              5.431
 Vibration     4          0.594              1.982              5.352
 Vibration     5          0.594              1.981              5.181
 Vibration     6          0.596              1.977              4.739
 Vibration     7          0.601              1.960              3.774
 Vibration     8          0.609              1.932              3.096
 Vibration     9          0.612              1.923              2.935
 Vibration    10          0.620              1.896              2.594
 Vibration    11          0.626              1.877              2.412
 Vibration    12          0.635              1.849              2.198
 Vibration    13          0.639              1.835              2.100
 Vibration    14          0.665              1.756              1.703
 Vibration    15          0.673              1.731              1.607
 Vibration    16          0.688              1.687              1.459
 Vibration    17          0.697              1.661              1.381
 Vibration    18          0.704              1.639              1.320
 Vibration    19          0.712              1.617              1.264
 Vibration    20          0.721              1.592              1.203
 Vibration    21          0.745              1.525              1.063
 Vibration    22          0.764              1.475              0.970
 Vibration    23          0.770              1.458              0.943
 Vibration    24          0.778              1.439              0.911
 Vibration    25          0.782              1.429              0.896
 Vibration    26          0.800              1.383              0.827
 Vibration    27          0.837              1.293              0.708
 Vibration    28          0.846              1.272              0.683
 Vibration    29          0.869              1.219              0.624
 Vibration    30          0.902              1.148              0.552
 Vibration    31          0.920              1.108              0.515
 Vibration    32          0.940              1.067              0.479
 Vibration    33          0.959              1.030              0.448

                           ! Non-Optimized Parameters !
 Normal termination of Gaussian 16 at Mon Sep 21 19:12:21 2020.

 ----------------------------------------------------------------------
 #p b3lyp/6-31G(d) scrf=(iefpcm,read,solvent=water) geom=allcheck guess
 =read
 ----------------------------------------------------------------------

 Structure from the checkpoint file:  "SM36_m0.n.8.pdb.xyz.mst.n.w.chk"
 -------------------
 SM36_m0.n.8.pdb.xyz
 -------------------
 Charge =  0 Multiplicity = 1

 SCF Done:  E(RB3LYP) =  -1735.93845349     A.U. after    6 cycles
 Normal termination of Gaussian 16 at Mon Sep 21 19:13:23 2020.

 -----------------------------
 #p B3LYP/6-31G* geom=allcheck
 -----------------------------

 Structure from the checkpoint file:  "SM36_m0.n.8.pdb.xyz.mst.n.w.chk"
 -------------------
 SM36_m0.n.8.pdb.xyz
 -------------------
 Charge =  0 Multiplicity = 1

 SCF Done:  E(RB3LYP) =  -1735.91373885     A.U. after   15 cycles
 Normal termination of Gaussian 16 at Mon Sep 21 19:14:51 2020.
 Gaussian 16:  ES64L-G16RevB.01 20-Dec-2017

 ----------------------------------------------------------------------
 #p mp2/aug-cc-pVDZ scf=(MaxCycle=2000,NoVarAcc,NoIncFock) maxdisk=120G
 B geom=allcheck
 ----------------------------------------------------------------------

 Structure from the checkpoint file:  "SM36_m0.n.8.pdb.xyz.mst.n.w.chk"
 -------------------
 SM36_m0.n.8.pdb.xyz
 -------------------
 Charge =  0 Multiplicity = 1

                         Standard orientation:
 ---------------------------------------------------------------------
 Center     Atomic      Atomic             Coordinates (Angstroms)
 Number     Number       Type             X           Y           Z
 ---------------------------------------------------------------------
      1          8           0        3.326053   -1.310237    1.612119
      2         16           0        2.383471   -1.082415    0.503746
      3          7           0        0.867971   -1.120346    1.206456
      4          6           0       -0.354075   -1.549278    0.509896
      5          6           0       -0.397221   -3.008443   -0.015491
      6         16           0       -1.337039   -2.481366   -1.546238
      7          8           0       -2.837371   -2.494945   -1.260462
      8          6           0       -0.582612   -0.907886   -0.877031
      9          6           0       -1.528919   -1.317334    1.479312
     10          6           0       -1.725837    0.121646    1.991966
     11          6           0       -2.401426    1.082210    1.032609
     12          6           0       -3.663128    0.791693    0.491772
     13          6           0       -4.300294    1.689188   -0.364615
     14          6           0       -3.687317    2.900778   -0.695981
     15          6           0       -2.433519    3.203581   -0.163357
     16          6           0       -1.799641    2.300354    0.693635
     17          6           0        2.569237    0.602724   -0.070746
     18          6           0        2.380082    1.661461    0.823913
     19          6           0        2.593719    2.964340    0.375578
     20          6           0        2.994548    3.196133   -0.944948
     21          6           0        3.185536    2.128238   -1.822982
     22          6           0        2.976181    0.818580   -1.387178
     23          8           0        2.449325   -1.955061   -0.683143
     24          1           0        0.953299   -1.492378    2.153564
     25          1           0       -0.926178   -3.749124    0.586155
     26          1           0        0.577957   -3.372960   -0.338098
     27          1           0       -1.238611   -0.042505   -0.936178
     28          1           0        0.337641   -0.740230   -1.436744
     29          1           0       -1.367113   -1.978650    2.338763
     30          1           0       -2.432053   -1.674381    0.975181
     31          1           0       -0.759583    0.532936    2.298688
     32          1           0       -2.335618    0.054783    2.900290
     33          1           0       -4.144910   -0.149033    0.739104
     34          1           0       -5.276055    1.444332   -0.772469
     35          1           0       -4.182554    3.599247   -1.362540
     36          1           0       -1.946286    4.140733   -0.414303
     37          1           0       -0.821605    2.538857    1.101313
     38          1           0        2.066371    1.471851    1.843781
     39          1           0        2.447766    3.796801    1.054916
     40          1           0        3.157427    4.212258   -1.287171
     41          1           0        3.497462    2.310022   -2.845528
     42          1           0        3.117980   -0.025593   -2.050262
 ---------------------------------------------------------------------

 SCF Done:  E(RHF) =  -1728.86617851     A.U. after   16 cycles
 E2 =    -0.3449435826D+01 EUMP2 =    -0.17323156143336D+04

 The electronic state is 1-A.
 Alpha  occ. eigenvalues --  -92.23918 -92.07589 -20.57213 -20.56783 -20.51845
 Alpha  occ. eigenvalues --  -15.62448 -11.32458 -11.29924 -11.28598 -11.28264
 Alpha  occ. eigenvalues --  -11.27961 -11.27641 -11.27481 -11.27478 -11.27310
 Alpha  occ. eigenvalues --  -11.25293 -11.25221 -11.24885 -11.24708 -11.24512
 Alpha  occ. eigenvalues --  -11.24352 -11.24304 -11.24014  -9.20702  -9.06396
 Alpha  occ. eigenvalues --   -6.89246  -6.89199  -6.89084  -6.74605  -6.74480
 Alpha  occ. eigenvalues --   -6.74354  -1.46902  -1.34805  -1.32647  -1.26369
 Alpha  occ. eigenvalues --   -1.19339  -1.16176  -1.13468  -1.07425  -1.06845
 Alpha  occ. eigenvalues --   -1.05435  -1.01868  -1.00854  -0.95422  -0.93989
 Alpha  occ. eigenvalues --   -0.90787  -0.86645  -0.85572  -0.83220  -0.82991
 Alpha  occ. eigenvalues --   -0.79834  -0.77548  -0.75034  -0.71986  -0.70918
 Alpha  occ. eigenvalues --   -0.69562  -0.68821  -0.66778  -0.66217  -0.65053
 Alpha  occ. eigenvalues --   -0.64516  -0.63750  -0.63231  -0.62471  -0.61901
 Alpha  occ. eigenvalues --   -0.60021  -0.59698  -0.58690  -0.58457  -0.56189
 Alpha  occ. eigenvalues --   -0.55663  -0.54517  -0.54313  -0.53648  -0.53219
 Alpha  occ. eigenvalues --   -0.52822  -0.52433  -0.51956  -0.50420  -0.49748
 Alpha  occ. eigenvalues --   -0.48887  -0.48453  -0.48127  -0.47845  -0.46387
 Alpha  occ. eigenvalues --   -0.43928  -0.39924  -0.37578  -0.36949  -0.36313
 Alpha  occ. eigenvalues --   -0.33951  -0.32926
 Alpha virt. eigenvalues --    0.02321   0.02996   0.03586   0.03811   0.04383
 Alpha virt. eigenvalues --    0.04768   0.05104   0.05425   0.06097   0.06385
 Alpha virt. eigenvalues --    0.06448   0.06689   0.06974   0.07367   0.08012

 Mulliken charges:
               1
     1  O   -1.177206
     2  S    2.834409
     3  N   -1.018098
     4  C    0.206554
     5  C    0.367340
     6  S    1.520648
     7  O   -1.274386
     8  C    0.303364
     9  C    0.701845
    10  C    0.452153
    11  C    0.498392
    12  C    0.739083
    13  C   -0.030302
    14  C    0.745705
    15  C   -0.022489
    16  C    0.964757
    17  C    0.652081
    18  C    0.538479
    19  C    0.361300
    20  C    0.618304
    21  C    0.463290
    22  C    0.397330
    23  O   -1.270862
    24  H   -0.082421
    25  H   -0.346166
    26  H   -0.235053
    27  H   -0.340561
    28  H   -0.214445
    29  H   -0.107968
    30  H   -0.094469
    31  H   -0.341773
    32  H   -0.066046
    33  H   -0.695689
    34  H   -0.505537
    35  H   -0.460487
    36  H   -0.512531
    37  H   -0.685162
    38  H   -0.730734
    39  H   -0.552315
    40  H   -0.479415
    41  H   -0.483596
    42  H   -0.637323
 Sum of Mulliken charges =  -0.00000

 Dipole moment (field-independent basis, Debye):
    X=              0.9318    Y=              4.8270    Z=              0.9950  Tot=              5.0158
 Quadrupole moment (field-independent basis, Debye-Ang):
   XX=           -175.5703   YY=           -145.5249   ZZ=           -147.7868
   XY=              7.6545   XZ=            -13.2303   YZ=            -10.9788

 Normal termination of Gaussian 16 at Mon Sep 21 22:14:58 2020.
