 Gaussian 16, Revision B.01,

 ----------------------------------------------------------------------
 #p b3lyp/6-31G(d) opt freq NoSymm scf=(MaxCycle=2000,NoVarAcc,NoIncFoc
 k) scrf=(iefpcm,read,solvent=water)
 ----------------------------------------------------------------------

 -------------------
 SM36_m1.a.4.pdb.xyz
 -------------------
 Symbolic Z-matrix:
 Charge = -1 Multiplicity = 1

 SCF Done:  E(RB3LYP) =  -1735.52624303     A.U. after   13 cycles
 SCF Done:  E(RB3LYP) =  -1735.53686437     A.U. after   11 cycles
 SCF Done:  E(RB3LYP) =  -1735.53849942     A.U. after   11 cycles
 SCF Done:  E(RB3LYP) =  -1735.53887497     A.U. after   10 cycles
 SCF Done:  E(RB3LYP) =  -1735.53896421     A.U. after   10 cycles
 SCF Done:  E(RB3LYP) =  -1735.53898622     A.U. after   10 cycles
 SCF Done:  E(RB3LYP) =  -1735.53899573     A.U. after    9 cycles
 SCF Done:  E(RB3LYP) =  -1735.53900208     A.U. after    9 cycles
 SCF Done:  E(RB3LYP) =  -1735.53901378     A.U. after    8 cycles
 SCF Done:  E(RB3LYP) =  -1735.53901491     A.U. after    8 cycles
 SCF Done:  E(RB3LYP) =  -1735.53901768     A.U. after    7 cycles
 SCF Done:  E(RB3LYP) =  -1735.53901723     A.U. after    7 cycles
 SCF Done:  E(RB3LYP) =  -1735.53901727     A.U. after    7 cycles
 SCF Done:  E(RB3LYP) =  -1735.53901710     A.U. after    7 cycles
 SCF Done:  E(RB3LYP) =  -1735.53901726     A.U. after    7 cycles
 SCF Done:  E(RB3LYP) =  -1735.53901727     A.U. after    6 cycles
 Optimization completed.
    -- Stationary point found.
 Normal termination of Gaussian 16 at Mon Sep 21 06:19:50 2020.

 --------------------------------------------------------------------
 #P Geom=AllCheck Guess=TCheck SCRF=Check GenChk RB3LYP/6-31G(d) Freq
 --------------------------------------------------------------------

 Structure from the checkpoint file:  "SM36_m1.a.4.pdb.xyz.mst.a.w.chk"
 -------------------
 SM36_m1.a.4.pdb.xyz
 -------------------
 Charge = -1 Multiplicity = 1

 SCF Done:  E(RB3LYP) =  -1735.53901727     A.U. after    1 cycles

  Exact polarizability: 231.373 -11.757 361.933  11.731   4.448 311.822
 Approx polarizability: 263.726 -16.431 387.822  11.006   8.194 378.690

                      1                      2                      3
                      A                      A                      A
 Frequencies --     15.2104                24.4200                25.6979
 Red. masses --      3.8362                 5.7113                 5.2867
 Frc consts  --      0.0005                 0.0020                 0.0021
 IR Inten    --      0.4488                 2.1240                 0.2880

                      4                      5                      6
                      A                      A                      A
 Frequencies --     40.6236                42.2965                58.8611
 Red. masses --      3.8895                 4.8424                 6.8228
 Frc consts  --      0.0038                 0.0051                 0.0139
 IR Inten    --      0.3585                 0.3534                 2.2160

                      7                      8                      9
                      A                      A                      A
 Frequencies --     74.7798               106.0438               130.4255
 Red. masses --      7.1282                 5.9273                 5.3743
 Frc consts  --      0.0235                 0.0393                 0.0539
 IR Inten    --     13.8334                 4.2590                 0.8149

                     10                     11                     12
                      A                      A                      A
 Frequencies --    140.9483               166.7572               182.2325
 Red. masses --      3.1961                 6.3387                 4.7445
 Frc consts  --      0.0374                 0.1039                 0.0928
 IR Inten    --      2.6189                 0.4871                13.8654

                     13                     14                     15
                      A                      A                      A
 Frequencies --    214.7561               236.4511               255.9313
 Red. masses --      5.4704                 6.0538                 7.4600
 Frc consts  --      0.1486                 0.1994                 0.2879
 IR Inten    --     11.9399                17.4612                 9.0654

                     16                     17                     18
                      A                      A                      A
 Frequencies --    295.6960               305.4057               313.6063
 Red. masses --      7.1205                 4.4486                 2.2646
 Frc consts  --      0.3668                 0.2445                 0.1312
 IR Inten    --      8.2920                 3.1249                 2.5603

                     19                     20                     21
                      A                      A                      A
 Frequencies --    327.0380               347.2952               375.0500
 Red. masses --      4.5383                 2.4379                 4.4310
 Frc consts  --      0.2860                 0.1732                 0.3672
 IR Inten    --      2.9655                11.9975                 1.4249

                     22                     23                     24
                      A                      A                      A
 Frequencies --    386.6375               407.7696               414.4178
 Red. masses --      3.4145                 5.6090                 3.0881
 Frc consts  --      0.3007                 0.5495                 0.3125
 IR Inten    --     17.4846                14.7564                 1.2715

                     25                     26                     27
                      A                      A                      A
 Frequencies --    417.7679               472.8146               492.1806
 Red. masses --      2.9788                 3.6465                 5.4298
 Frc consts  --      0.3063                 0.4803                 0.7750
 IR Inten    --      0.0128                 3.4989                13.9806

                     28                     29                     30
                      A                      A                      A
 Frequencies --    518.9101               542.1521               577.7183
 Red. masses --      3.5785                 5.4625                10.1141
 Frc consts  --      0.5677                 0.9460                 1.9889
 IR Inten    --     21.8709                57.9543               263.9137

                     31                     32                     33
                      A                      A                      A
 Frequencies --    594.0167               605.6196               628.3294
 Red. masses --      4.8320                 5.0249                 6.4235
 Frc consts  --      1.0046                 1.0859                 1.4942
 IR Inten    --     39.3825                30.1767                 0.1777

                     34                     35                     36
                      A                      A                      A
 Frequencies --    634.7628               652.1249               694.2032
 Red. masses --      6.3401                 4.5282                 4.7920
 Frc consts  --      1.5051                 1.1346                 1.3606
 IR Inten    --      0.2802                22.4844                28.8222

                     37                     38                     39
                      A                      A                      A
 Frequencies --    705.4646               711.0217               717.8453
 Red. masses --      2.5619                 4.9739                 1.8809
 Frc consts  --      0.7512                 1.4815                 0.5710
 IR Inten    --     53.3568                66.1791                32.9476

                     40                     41                     42
                      A                      A                      A
 Frequencies --    766.2066               766.9903               770.2451
 Red. masses --      1.4523                 1.4756                 1.7656
 Frc consts  --      0.5023                 0.5114                 0.6172
 IR Inten    --     25.5762                18.2160                55.4049

                     43                     44                     45
                      A                      A                      A
 Frequencies --    794.7262               807.5552               816.2227
 Red. masses --      4.9220                 2.2760                 2.2424
 Frc consts  --      1.8316                 0.8745                 0.8802
 IR Inten    --     25.5157                39.0540                23.0469

                     46                     47                     48
                      A                      A                      A
 Frequencies --    841.4916               865.1763               865.4855
 Red. masses --      3.4900                 1.2487                 1.2440
 Frc consts  --      1.4561                 0.5507                 0.5490
 IR Inten    --      6.5747                 0.0278                 0.3952

                     49                     50                     51
                      A                      A                      A
 Frequencies --    928.3218               938.6520               941.9735
 Red. masses --      1.4428                 1.3310                 2.7412
 Frc consts  --      0.7326                 0.6909                 1.4331
 IR Inten    --      8.9604                 2.4594               183.5161

                     52                     53                     54
                      A                      A                      A
 Frequencies --    953.8021               975.5915               984.1736
 Red. masses --      2.0788                 1.3525                 1.3496
 Frc consts  --      1.1142                 0.7584                 0.7702
 IR Inten    --      8.0404                 0.0065                 0.7250

                     55                     56                     57
                      A                      A                      A
 Frequencies --    996.8217              1001.0419              1007.6970
 Red. masses --      3.5207                 1.2532                 1.2553
 Frc consts  --      2.0612                 0.7399                 0.7510
 IR Inten    --    102.7765                 0.0309                 0.2965

                     58                     59                     60
                      A                      A                      A
 Frequencies --   1013.9851              1015.3468              1034.0267
 Red. masses --      5.8511                 6.2166                 5.1871
 Frc consts  --      3.5445                 3.7760                 3.2676
 IR Inten    --     12.0987                 1.9117                54.9287

                     61                     62                     63
                      A                      A                      A
 Frequencies --   1048.5569              1050.1925              1055.2478
 Red. masses --      1.0955                 2.8053                 2.2706
 Frc consts  --      0.7097                 1.8229                 1.4897
 IR Inten    --      6.6475                 1.5519                16.6872

                     64                     65                     66
                      A                      A                      A
 Frequencies --   1059.7602              1072.9507              1082.7409
 Red. masses --      3.3137                 3.5409                 2.1058
 Frc consts  --      2.1927                 2.4018                 1.4545
 IR Inten    --    111.0441               298.2725                50.7278

                     67                     68                     69
                      A                      A                      A
 Frequencies --   1107.6037              1113.0478              1127.1888
 Red. masses --      1.6340                 3.1616                 1.8471
 Frc consts  --      1.1810                 2.3078                 1.3827
 IR Inten    --     17.9720               106.4778                72.5171

                     70                     71                     72
                      A                      A                      A
 Frequencies --   1134.1604              1174.7997              1185.4735
 Red. masses --      3.6846                10.6594                 1.0953
 Frc consts  --      2.7925                 8.6678                 0.9069
 IR Inten    --    368.3493               380.3240                 0.3730

                     73                     74                     75
                      A                      A                      A
 Frequencies --   1185.5685              1187.0743              1206.4895
 Red. masses --      1.3348                 1.1089                 1.1471
 Frc consts  --      1.1054                 0.9207                 0.9838
 IR Inten    --      3.9677                 2.2185                 0.6099

                     76                     77                     78
                      A                      A                      A
 Frequencies --   1206.9530              1221.0959              1233.5847
 Red. masses --      1.1535                 1.5592                 2.6214
 Frc consts  --      0.9901                 1.3698                 2.3503
 IR Inten    --      6.5137                95.2651                 6.6856

                     79                     80                     81
                      A                      A                      A
 Frequencies --   1235.0719              1248.3452              1323.3914
 Red. masses --      1.5688                 2.2492                 1.3919
 Frc consts  --      1.4100                 2.0652                 1.4363
 IR Inten    --     12.3236                42.7669                26.2930

                     82                     83                     84
                      A                      A                      A
 Frequencies --   1337.0127              1340.8589              1356.2357
 Red. masses --      2.1503                 1.5297                 2.4122
 Frc consts  --      2.2647                 1.6204                 2.6141
 IR Inten    --      1.9416                 3.6684                 0.8669

                     85                     86                     87
                      A                      A                      A
 Frequencies --   1359.2097              1374.3891              1403.4851
 Red. masses --      2.6067                 1.2421                 1.4156
 Frc consts  --      2.8374                 1.3824                 1.6428
 IR Inten    --      0.5557                 0.8508                 5.7370

                     88                     89                     90
                      A                      A                      A
 Frequencies --   1452.3638              1465.3011              1484.8396
 Red. masses --      1.0917                 1.1063                 2.1237
 Frc consts  --      1.3567                 1.3996                 2.7587
 IR Inten    --     22.2436                10.0109                18.4374

                     91                     92                     93
                      A                      A                      A
 Frequencies --   1489.3973              1498.0035              1511.8281
 Red. masses --      1.0851                 2.1414                 1.1017
 Frc consts  --      1.4182                 2.8313                 1.4836
 IR Inten    --      0.5767                 4.0556                 8.5355

                     94                     95                     96
                      A                      A                      A
 Frequencies --   1525.4237              1542.3526              1635.5885
 Red. masses --      2.0300                 2.2111                 5.6625
 Frc consts  --      2.7831                 3.0991                 8.9250
 IR Inten    --      9.8487                20.1638                 0.0866

                     97                     98                     99
                      A                      A                      A
 Frequencies --   1637.7101              1641.4644              1658.3945
 Red. masses --      5.4131                 5.3819                 5.6153
 Frc consts  --      8.5540                 8.5437                 9.0991
 IR Inten    --      1.6118                 1.4152                13.1731

                    100                    101                    102
                      A                      A                      A
 Frequencies --   3046.3817              3064.9407              3087.1570
 Red. masses --      1.0594                 1.0593                 1.1013
 Frc consts  --      5.7928                 5.8630                 6.1843
 IR Inten    --     26.1207                60.7282                 8.0429

                    103                    104                    105
                      A                      A                      A
 Frequencies --   3100.0168              3107.9688              3110.9913
 Red. masses --      1.0599                 1.0733                 1.0871
 Frc consts  --      6.0014                 6.1084                 6.1991
 IR Inten    --      6.2898                13.3588                72.5219

                    106                    107                    108
                      A                      A                      A
 Frequencies --   3167.8215              3175.6371              3176.5109
 Red. masses --      1.1102                 1.0863                 1.0876
 Frc consts  --      6.5640                 6.4545                 6.4661
 IR Inten    --      9.7378                19.0267                13.5868

                    109                    110                    111
                      A                      A                      A
 Frequencies --   3178.4737              3188.7211              3190.0152
 Red. masses --      1.1088                 1.0895                 1.0856
 Frc consts  --      6.6001                 6.5267                 6.5091
 IR Inten    --      7.4116                12.7186                 0.5765

                    112                    113                    114
                      A                      A                      A
 Frequencies --   3196.3953              3198.0781              3208.7246
 Red. masses --      1.0938                 1.0891                 1.0928
 Frc consts  --      6.5841                 6.5629                 6.6288
 IR Inten    --     79.0603                23.3448                35.5123

                    115                    116                    117
                      A                      A                      A
 Frequencies --   3209.1577              3216.2870              3229.0902
 Red. masses --      1.0977                 1.0952                 1.0919
 Frc consts  --      6.6604                 6.6752                 6.7080
 IR Inten    --     36.1656                29.4800                12.2237

 - Thermochemistry -
 -------------------
 Temperature   298.150 Kelvin.  Pressure   1.00000 Atm.
 Atom     1 has atomic number  8 and mass  15.99491

 Molecular mass:   348.07281 amu.
 Principal axes and moments of inertia in atomic units:
                           1         2         3
     Eigenvalues --  8393.453158662.25887**********
           X            0.99771   0.06027  -0.03081
           Y           -0.05990   0.99812   0.01279
           Z            0.03152  -0.01091   0.99944
 This molecule is an asymmetric top.
 Rotational symmetry number  1.
 Warning -- assumption of classical behavior for rotation
           may cause significant error
 Rotational temperatures (Kelvin)      0.01032     0.01000     0.00579
 Rotational constants (GHZ):           0.21502     0.20835     0.12071
 Zero-point vibrational energy     841957.7 (Joules/Mol)
                                  201.23273 (Kcal/Mol)
 Warning -- explicit consideration of  32 degrees of freedom as
           vibrations may cause significant error
 Vibrational temperatures:     21.88    35.13    36.97    58.45    60.86
          (Kelvin)             84.69   107.59   152.57   187.65   202.79
                              239.93   262.19   308.99   340.20   368.23
                              425.44   439.41   451.21   470.53   499.68
                              539.61   556.29   586.69   596.25   601.07
                              680.27   708.14   746.60   780.04   831.21
                              854.66   871.35   904.03   913.28   938.26
                              998.80  1015.01  1023.00  1032.82  1102.40
                             1103.53  1108.21  1143.43  1161.89  1174.36
                             1210.72  1244.80  1245.24  1335.65  1350.51
                             1355.29  1372.31  1403.66  1416.01  1434.20
                             1440.28  1449.85  1458.90  1460.86  1487.73
                             1508.64  1510.99  1518.27  1524.76  1543.74
                             1557.82  1593.59  1601.43  1621.77  1631.80
                             1690.27  1705.63  1705.77  1707.94  1735.87
                             1736.54  1756.88  1774.85  1776.99  1796.09
                             1904.07  1923.66  1929.20  1951.32  1955.60
                             1977.44  2019.30  2089.63  2108.24  2136.35
                             2142.91  2155.29  2175.18  2194.74  2219.10
                             2353.25  2356.30  2361.70  2386.06  4383.06
                             4409.77  4441.73  4460.23  4471.67  4476.02
                             4557.79  4569.03  4570.29  4573.11  4587.86
                             4589.72  4598.90  4601.32  4616.64  4617.26
                             4627.52  4645.94

 Zero-point correction=                           0.320685 (Hartree/Particle)
 Thermal correction to Energy=                    0.341774
 Thermal correction to Enthalpy=                  0.342718
 Thermal correction to Gibbs Free Energy=         0.267301
 Sum of electronic and zero-point Energies=          -1735.218333
 Sum of electronic and thermal Energies=             -1735.197243
 Sum of electronic and thermal Enthalpies=           -1735.196299
 Sum of electronic and thermal Free Energies=        -1735.271716

                     E (Thermal)             CV                S
                      KCal/Mol        Cal/Mol-Kelvin    Cal/Mol-Kelvin
 Total                  214.466             81.538            158.729
 Electronic               0.000              0.000              0.000
 Translational            0.889              2.981             43.436
 Rotational               0.889              2.981             35.340
 Vibrational            212.689             75.576             79.953
 Vibration     1          0.593              1.986              7.178
 Vibration     2          0.593              1.985              6.238
 Vibration     3          0.593              1.985              6.137
 Vibration     4          0.594              1.981              5.228
 Vibration     5          0.595              1.980              5.149
 Vibration     6          0.596              1.974              4.495
 Vibration     7          0.599              1.966              4.023
 Vibration     8          0.605              1.944              3.340
 Vibration     9          0.612              1.923              2.940
 Vibration    10          0.615              1.912              2.791
 Vibration    11          0.624              1.883              2.472
 Vibration    12          0.630              1.864              2.305
 Vibration    13          0.645              1.819              2.003
 Vibration    14          0.655              1.785              1.829
 Vibration    15          0.666              1.753              1.689
 Vibration    16          0.690              1.682              1.441
 Vibration    17          0.696              1.663              1.387
 Vibration    18          0.701              1.648              1.343
 Vibration    19          0.711              1.621              1.275
 Vibration    20          0.725              1.581              1.178
 Vibration    21          0.746              1.523              1.059
 Vibration    22          0.755              1.499              1.013
 Vibration    23          0.772              1.453              0.935
 Vibration    24          0.778              1.439              0.911
 Vibration    25          0.781              1.432              0.900
 Vibration    26          0.830              1.310              0.730
 Vibration    27          0.848              1.267              0.678
 Vibration    28          0.874              1.208              0.612
 Vibration    29          0.897              1.157              0.561
 Vibration    30          0.934              1.079              0.490
 Vibration    31          0.952              1.045              0.460
 Vibration    32          0.964              1.020              0.440

                           ! Non-Optimized Parameters !
 Normal termination of Gaussian 16 at Mon Sep 21 06:43:04 2020.

 ----------------------------------------------------------------------
 #p b3lyp/6-31G(d) scrf=(iefpcm,read,solvent=water) geom=allcheck guess
 =read
 ----------------------------------------------------------------------

 Structure from the checkpoint file:  "SM36_m1.a.4.pdb.xyz.mst.a.w.chk"
 -------------------
 SM36_m1.a.4.pdb.xyz
 -------------------
 Charge = -1 Multiplicity = 1

 SCF Done:  E(RB3LYP) =  -1735.53900177     A.U. after    7 cycles
 Normal termination of Gaussian 16 at Mon Sep 21 06:44:10 2020.

 -----------------------------
 #p B3LYP/6-31G* geom=allcheck
 -----------------------------

 Structure from the checkpoint file:  "SM36_m1.a.4.pdb.xyz.mst.a.w.chk"
 -------------------
 SM36_m1.a.4.pdb.xyz
 -------------------
 Charge = -1 Multiplicity = 1

 SCF Done:  E(RB3LYP) =  -1735.36073587     A.U. after   16 cycles
 Normal termination of Gaussian 16 at Mon Sep 21 06:45:34 2020.
 Gaussian 16:  ES64L-G16RevB.01 20-Dec-2017

 ----------------------------------------------------------------------
 #p mp2/aug-cc-pVDZ scf=(MaxCycle=2000,NoVarAcc,NoIncFock) maxdisk=120G
 B geom=allcheck
 ----------------------------------------------------------------------

 Structure from the checkpoint file:  "SM36_m1.a.4.pdb.xyz.mst.a.w.chk"
 -------------------
 SM36_m1.a.4.pdb.xyz
 -------------------
 Charge = -1 Multiplicity = 1

                         Standard orientation:
 ---------------------------------------------------------------------
 Center     Atomic      Atomic             Coordinates (Angstroms)
 Number     Number       Type             X           Y           Z
 ---------------------------------------------------------------------
      1          8           0       -4.075264    0.118350   -0.010579
      2         16           0       -2.617528    0.103288   -0.336756
      3          7           0       -1.888818    1.097599    0.654592
      4          6           0       -0.572250    1.648666    0.315784
      5          6           0       -0.229089    2.722803    1.392098
      6         16           0        0.040351    4.087861    0.146678
      7          8           0        1.535599    4.331568   -0.081439
      8          6           0       -0.571702    2.658691   -0.884535
      9          6           0        0.519079    0.554922    0.195450
     10          6           0        1.975257    1.006048   -0.050532
     11          6           0        2.920019   -0.177231   -0.107656
     12          6           0        3.145660   -0.861587   -1.311612
     13          6           0        3.994245   -1.970058   -1.361481
     14          6           0        4.636333   -2.415082   -0.202552
     15          6           0        4.422291   -1.742253    1.003375
     16          6           0        3.572057   -0.634582    1.047214
     17          6           0       -2.126697   -1.613921    0.017915
     18          6           0       -2.003831   -2.033832    1.346914
     19          6           0       -1.680816   -3.362052    1.627297
     20          6           0       -1.478986   -4.271256    0.583657
     21          6           0       -1.601329   -3.847737   -0.741654
     22          6           0       -1.927948   -2.518963   -1.027487
     23          8           0       -2.297712    0.291638   -1.788065
     24          1           0        0.661439    2.558290    2.003702
     25          1           0       -1.080052    2.974226    2.029265
     26          1           0        0.102352    2.456435   -1.720582
     27          1           0       -1.569389    2.887409   -1.261011
     28          1           0        0.229546   -0.119550   -0.619139
     29          1           0        0.484152   -0.035912    1.119548
     30          1           0        2.299583    1.690140    0.740719
     31          1           0        2.041233    1.567087   -0.989173
     32          1           0        2.654548   -0.518413   -2.219788
     33          1           0        4.157697   -2.482582   -2.305992
     34          1           0        5.299805   -3.274867   -0.239735
     35          1           0        4.920488   -2.076349    1.909861
     36          1           0        3.414688   -0.113687    1.989306
     37          1           0       -2.145504   -1.322166    2.154623
     38          1           0       -1.582411   -3.686553    2.659482
     39          1           0       -1.223755   -5.303900    0.804447
     40          1           0       -1.441769   -4.549766   -1.555566
     41          1           0       -2.020823   -2.179323   -2.053367
 ---------------------------------------------------------------------

 SCF Done:  E(RHF) =  -1728.31818882     A.U. after   18 cycles
 E2 =    -0.3457832623D+01 EUMP2 =    -0.17317760214427D+04

 The electronic state is 1-A.
 Alpha  occ. eigenvalues --  -92.05168 -91.95169 -20.40546 -20.39265 -20.38094
 Alpha  occ. eigenvalues --  -15.38444 -11.17507 -11.16486 -11.16421 -11.16258
 Alpha  occ. eigenvalues --  -11.16116 -11.15621 -11.15519 -11.15443 -11.15306
 Alpha  occ. eigenvalues --  -11.15292 -11.15099 -11.15071 -11.14721 -11.14671
 Alpha  occ. eigenvalues --  -11.14594 -11.13297 -11.12176  -9.01840  -8.94102
 Alpha  occ. eigenvalues --   -6.70407  -6.70310  -6.70267  -6.62335  -6.62199
 Alpha  occ. eigenvalues --   -6.62073  -1.27522  -1.20819  -1.15291  -1.07414
 Alpha  occ. eigenvalues --   -1.06558  -1.05794  -0.97823  -0.96514  -0.93365
 Alpha  occ. eigenvalues --   -0.92550  -0.92248  -0.89450  -0.82411  -0.80452
 Alpha  occ. eigenvalues --   -0.75957  -0.74608  -0.73359  -0.72652  -0.70372
 Alpha  occ. eigenvalues --   -0.66915  -0.62571  -0.61233  -0.59835  -0.56181
 Alpha  occ. eigenvalues --   -0.55707  -0.54863  -0.53743  -0.52913  -0.52000
 Alpha  occ. eigenvalues --   -0.51092  -0.50697  -0.50310  -0.49343  -0.48641
 Alpha  occ. eigenvalues --   -0.48015  -0.46859  -0.45226  -0.44677  -0.43880
 Alpha  occ. eigenvalues --   -0.42560  -0.41711  -0.41442  -0.41014  -0.40276
 Alpha  occ. eigenvalues --   -0.39966  -0.39948  -0.39370  -0.36762  -0.36004
 Alpha  occ. eigenvalues --   -0.34885  -0.33044  -0.30962  -0.29265  -0.28450
 Alpha  occ. eigenvalues --   -0.25710  -0.25535  -0.24921  -0.24391  -0.24150
 Alpha  occ. eigenvalues --   -0.23689  -0.20630
 Alpha virt. eigenvalues --    0.09002   0.09954   0.10182   0.10801   0.11307
 Alpha virt. eigenvalues --    0.12100   0.12290   0.12843   0.13459   0.14339
 Alpha virt. eigenvalues --    0.14433   0.15056   0.15229   0.16084   0.16806

 Mulliken charges:
               1
     1  O   -1.287662
     2  S    2.807510
     3  N   -1.831560
     4  C    0.792998
     5  C    0.530283
     6  S    1.432182
     7  O   -1.254391
     8  C    0.321530
     9  C    0.118946
    10  C    0.859343
    11  C    1.011577
    12  C    0.742664
    13  C   -0.005031
    14  C    0.672228
    15  C   -0.026831
    16  C    0.686015
    17  C    0.686921
    18  C    0.397385
    19  C    0.188451
    20  C    0.789453
    21  C    0.306153
    22  C    0.496293
    23  O   -1.382097
    24  H   -0.295151
    25  H   -0.265732
    26  H   -0.334381
    27  H   -0.268351
    28  H   -0.261965
    29  H   -0.314508
    30  H   -0.323094
    31  H   -0.236711
    32  H   -0.708726
    33  H   -0.507935
    34  H   -0.462964
    35  H   -0.499316
    36  H   -0.694372
    37  H   -0.712568
    38  H   -0.518935
    39  H   -0.483084
    40  H   -0.511444
    41  H   -0.653122
 Sum of Mulliken charges =  -1.00000

 Dipole moment (field-independent basis, Debye):
    X=              7.4282    Y=             -6.5747    Z=              1.9725  Tot=             10.1142
 Quadrupole moment (field-independent basis, Debye-Ang):
   XX=           -218.7336   YY=           -188.0199   ZZ=           -151.7038
   XY=            -12.9347   XZ=             -1.5291   YZ=              2.7195

 Normal termination of Gaussian 16 at Mon Sep 21 08:33:23 2020.
