 Gaussian 16, Revision B.01,

 ----------------------------------------------------------------------
 #p b3lyp/6-31G(d) opt freq NoSymm scf=(MaxCycle=2000,NoVarAcc,NoIncFoc
 k) scrf=(iefpcm,read,solvent=water)
 ----------------------------------------------------------------------

 -------------------
 SM36_m1.a.8.pdb.xyz
 -------------------
 Symbolic Z-matrix:
 Charge = -1 Multiplicity = 1

 SCF Done:  E(RB3LYP) =  -1735.52659596     A.U. after   13 cycles
 SCF Done:  E(RB3LYP) =  -1735.53656586     A.U. after   11 cycles
 SCF Done:  E(RB3LYP) =  -1735.53828552     A.U. after   11 cycles
 SCF Done:  E(RB3LYP) =  -1735.53840066     A.U. after   11 cycles
 SCF Done:  E(RB3LYP) =  -1735.53897042     A.U. after   10 cycles
 SCF Done:  E(RB3LYP) =  -1735.53887837     A.U. after   10 cycles
 SCF Done:  E(RB3LYP) =  -1735.53890210     A.U. after   10 cycles
 SCF Done:  E(RB3LYP) =  -1735.53895059     A.U. after   10 cycles
 SCF Done:  E(RB3LYP) =  -1735.53897593     A.U. after    9 cycles
 SCF Done:  E(RB3LYP) =  -1735.53897982     A.U. after   10 cycles
 SCF Done:  E(RB3LYP) =  -1735.53896040     A.U. after    8 cycles
 SCF Done:  E(RB3LYP) =  -1735.53896996     A.U. after    8 cycles
 SCF Done:  E(RB3LYP) =  -1735.53896952     A.U. after    7 cycles
 SCF Done:  E(RB3LYP) =  -1735.53896864     A.U. after    6 cycles
 Optimization completed.
    -- Stationary point found.
 Normal termination of Gaussian 16 at Mon Sep 21 06:17:38 2020.

 --------------------------------------------------------------------
 #P Geom=AllCheck Guess=TCheck SCRF=Check GenChk RB3LYP/6-31G(d) Freq
 --------------------------------------------------------------------

 Structure from the checkpoint file:  "SM36_m1.a.8.pdb.xyz.mst.a.w.chk"
 -------------------
 SM36_m1.a.8.pdb.xyz
 -------------------
 Charge = -1 Multiplicity = 1

 SCF Done:  E(RB3LYP) =  -1735.53896864     A.U. after    1 cycles

  Exact polarizability: 291.122  30.358 340.397   9.739 -35.907 278.552
 Approx polarizability: 333.991  30.850 374.608  13.337 -37.403 332.019

                      1                      2                      3
                      A                      A                      A
 Frequencies --     17.9214                21.5291                38.7283
 Red. masses --      5.7394                 5.9319                 5.2319
 Frc consts  --      0.0011                 0.0016                 0.0046
 IR Inten    --      0.2650                 1.3805                 1.0366

                      4                      5                      6
                      A                      A                      A
 Frequencies --     39.2732                45.6685                53.5291
 Red. masses --      5.4174                 4.0087                 5.4596
 Frc consts  --      0.0049                 0.0049                 0.0092
 IR Inten    --      1.2452                 0.0989                 2.0426

                      7                      8                      9
                      A                      A                      A
 Frequencies --     70.9383               116.7921               129.3263
 Red. masses --      7.4939                 5.0039                 6.2428
 Frc consts  --      0.0222                 0.0402                 0.0615
 IR Inten    --     10.9261                 0.6559                 1.8906

                     10                     11                     12
                      A                      A                      A
 Frequencies --    165.1384               172.2849               188.4316
 Red. masses --      6.2805                 5.0023                 4.9332
 Frc consts  --      0.1009                 0.0875                 0.1032
 IR Inten    --      5.3190                 9.5780                19.9335

                     13                     14                     15
                      A                      A                      A
 Frequencies --    205.8178               264.1449               267.6260
 Red. masses --      6.5366                 6.7554                 6.0311
 Frc consts  --      0.1631                 0.2777                 0.2545
 IR Inten    --      9.8869                 2.2807                 5.4830

                     16                     17                     18
                      A                      A                      A
 Frequencies --    293.1631               303.1505               328.0278
 Red. masses --      4.1708                 4.2196                 2.6243
 Frc consts  --      0.2112                 0.2285                 0.1664
 IR Inten    --     17.0394                 4.5022                 6.6455

                     19                     20                     21
                      A                      A                      A
 Frequencies --    340.9889               344.2402               381.6253
 Red. masses --      3.8319                 2.3316                 3.0903
 Frc consts  --      0.2625                 0.1628                 0.2652
 IR Inten    --      7.6603                 2.7439                 2.1008

                     22                     23                     24
                      A                      A                      A
 Frequencies --    395.6353               412.8516               419.4200
 Red. masses --      4.2737                 3.0588                 3.3494
 Frc consts  --      0.3941                 0.3072                 0.3471
 IR Inten    --      6.5898                 1.5287                 1.6486

                     25                     26                     27
                      A                      A                      A
 Frequencies --    419.9110               466.5134               493.8716
 Red. masses --      3.8103                 4.0227                 3.8742
 Frc consts  --      0.3958                 0.5158                 0.5568
 IR Inten    --      5.0838                12.5626                 5.7908

                     28                     29                     30
                      A                      A                      A
 Frequencies --    515.3103               550.8615               568.2204
 Red. masses --      3.8207                 7.3285                 4.5082
 Frc consts  --      0.5978                 1.3102                 0.8576
 IR Inten    --      8.8882               104.2180                89.8841

                     31                     32                     33
                      A                      A                      A
 Frequencies --    589.0751               594.6579               628.0303
 Red. masses --      4.3333                 5.5677                 6.4304
 Frc consts  --      0.8860                 1.1600                 1.4943
 IR Inten    --     47.4712               183.7287                 0.0592

                     34                     35                     36
                      A                      A                      A
 Frequencies --    634.0872               635.0502               683.5826
 Red. masses --      5.5429                 5.2179                 5.4109
 Frc consts  --      1.3131                 1.2398                 1.4897
 IR Inten    --      9.0618                12.3044                36.1739

                     37                     38                     39
                      A                      A                      A
 Frequencies --    703.3941               710.8835               715.8914
 Red. masses --      2.4987                 6.3376                 2.1759
 Frc consts  --      0.7284                 1.8870                 0.6570
 IR Inten    --     48.1970                60.6686                26.9284

                     40                     41                     42
                      A                      A                      A
 Frequencies --    740.0019               762.7152               771.2934
 Red. masses --      2.1422                 1.5452                 2.9338
 Frc consts  --      0.6912                 0.5296                 1.0283
 IR Inten    --     33.5422                37.1626                16.3534

                     43                     44                     45
                      A                      A                      A
 Frequencies --    777.3598               818.7886               841.5718
 Red. masses --      2.1772                 1.7507                 3.4183
 Frc consts  --      0.7752                 0.6915                 1.4264
 IR Inten    --     13.9247                 4.5210                75.9740

                     46                     47                     48
                      A                      A                      A
 Frequencies --    861.8157               866.8122               888.8820
 Red. masses --      1.2477                 1.2514                 2.1963
 Frc consts  --      0.5460                 0.5540                 1.0224
 IR Inten    --      0.4343                 0.1430                15.2846

                     49                     50                     51
                      A                      A                      A
 Frequencies --    922.4239               934.1085               943.9004
 Red. masses --      1.7288                 1.3223                 1.8613
 Frc consts  --      0.8667                 0.6798                 0.9770
 IR Inten    --     13.9530                 1.6909                21.5317

                     52                     53                     54
                      A                      A                      A
 Frequencies --    958.9695               976.8916               982.7915
 Red. masses --      2.6896                 1.3685                 1.3680
 Frc consts  --      1.4573                 0.7694                 0.7785
 IR Inten    --     85.7517                 1.6993                 4.5856

                     55                     56                     57
                      A                      A                      A
 Frequencies --    985.7220              1001.6018              1007.2896
 Red. masses --      2.7847                 1.2545                 1.2582
 Frc consts  --      1.5942                 0.7415                 0.7521
 IR Inten    --    142.5763                 0.8021                 0.1405

                     58                     59                     60
                      A                      A                      A
 Frequencies --   1012.5079              1015.2236              1033.1203
 Red. masses --      6.0218                 6.1748                 5.3168
 Frc consts  --      3.6372                 3.7497                 3.3435
 IR Inten    --     12.5733                 1.6504               210.8947

                     61                     62                     63
                      A                      A                      A
 Frequencies --   1048.2691              1051.4457              1055.3303
 Red. masses --      2.4869                 1.9695                 1.8334
 Frc consts  --      1.6101                 1.2829                 1.2031
 IR Inten    --      9.9987                81.2632                16.1333

                     64                     65                     66
                      A                      A                      A
 Frequencies --   1063.0667              1067.9660              1090.3748
 Red. masses --      2.1810                 2.5996                 2.3676
 Frc consts  --      1.4522                 1.7469                 1.6585
 IR Inten    --     43.8746               113.2012                13.9003

                     67                     68                     69
                      A                      A                      A
 Frequencies --   1101.1158              1111.0919              1111.9345
 Red. masses --      1.5827                 2.8004                 2.1981
 Frc consts  --      1.1306                 2.0369                 1.6012
 IR Inten    --     13.5926               175.9942               157.6357

                     70                     71                     72
                      A                      A                      A
 Frequencies --   1144.0531              1175.7920              1185.8923
 Red. masses --      2.9572                11.6294                 1.0949
 Frc consts  --      2.2805                 9.4726                 0.9072
 IR Inten    --    323.7306               462.4098                 0.3121

                     73                     74                     75
                      A                      A                      A
 Frequencies --   1187.9102              1198.9399              1200.4938
 Red. masses --      1.1023                 1.2740                 1.1547
 Frc consts  --      0.9165                 1.0790                 0.9805
 IR Inten    --      0.3253                 2.1144                 0.8561

                     76                     77                     78
                      A                      A                      A
 Frequencies --   1208.7942              1212.7868              1224.2665
 Red. masses --      1.1836                 1.2185                 2.3172
 Frc consts  --      1.0190                 1.0559                 2.0463
 IR Inten    --      5.7373                 5.4977                 2.0459

                     79                     80                     81
                      A                      A                      A
 Frequencies --   1237.4675              1279.2497              1307.5644
 Red. masses --      1.8720                 1.9194                 1.2934
 Frc consts  --      1.6890                 1.8506                 1.3029
 IR Inten    --     60.1326               105.0630                41.0085

                     82                     83                     84
                      A                      A                      A
 Frequencies --   1333.8902              1349.3842              1354.2288
 Red. masses --      1.7198                 3.5362                 3.5010
 Frc consts  --      1.8029                 3.7936                 3.7829
 IR Inten    --      3.1066                 1.9900                 0.5589

                     85                     86                     87
                      A                      A                      A
 Frequencies --   1364.8334              1386.9083              1401.0161
 Red. masses --      1.4810                 1.3508                 1.3842
 Frc consts  --      1.6254                 1.5309                 1.6008
 IR Inten    --      1.5596                 8.6640                10.7061

                     88                     89                     90
                      A                      A                      A
 Frequencies --   1450.2074              1469.3960              1484.5816
 Red. masses --      1.0893                 1.1111                 2.1153
 Frc consts  --      1.3498                 1.4135                 2.7468
 IR Inten    --     15.8780                10.7870                15.1650

                     91                     92                     93
                      A                      A                      A
 Frequencies --   1493.8312              1505.8675              1512.1249
 Red. masses --      1.8831                 1.1032                 1.1730
 Frc consts  --      2.4759                 1.4739                 1.5803
 IR Inten    --      7.8637                 7.3494                 9.0638

                     94                     95                     96
                      A                      A                      A
 Frequencies --   1522.0684              1542.7345              1634.9204
 Red. masses --      2.0637                 2.1822                 5.7110
 Frc consts  --      2.8169                 3.0600                 8.9941
 IR Inten    --      8.2892                17.8348                 0.3888

                     97                     98                     99
                      A                      A                      A
 Frequencies --   1636.5172              1640.6077              1658.0611
 Red. masses --      5.3738                 5.4108                 5.5552
 Frc consts  --      8.4796                 8.5806                 8.9981
 IR Inten    --      1.1768                 1.3906                10.1732

                    100                    101                    102
                      A                      A                      A
 Frequencies --   3032.9488              3047.1362              3092.7648
 Red. masses --      1.0681                 1.0646                 1.0983
 Frc consts  --      5.7888                 5.8239                 6.1899
 IR Inten    --     20.6632                97.8267                24.3013

                    103                    104                    105
                      A                      A                      A
 Frequencies --   3097.6906              3107.8570              3119.8001
 Red. masses --      1.0599                 1.0939                 1.0576
 Frc consts  --      5.9921                 6.2249                 6.0648
 IR Inten    --     20.5849                47.3528                 6.9552

                    106                    107                    108
                      A                      A                      A
 Frequencies --   3176.5415              3179.1042              3180.9567
 Red. masses --      1.0863                 1.1085                 1.0865
 Frc consts  --      6.4579                 6.6009                 6.4773
 IR Inten    --     15.3271                 3.0276                 2.8427

                    109                    110                    111
                      A                      A                      A
 Frequencies --   3189.9903              3190.4781              3191.3028
 Red. masses --      1.0901                 1.0855                 1.1089
 Frc consts  --      6.5356                 6.5105                 6.6538
 IR Inten    --     18.6434                 0.7209                 2.1974

                    112                    113                    114
                      A                      A                      A
 Frequencies --   3196.8500              3197.5984              3207.2115
 Red. masses --      1.0940                 1.0887                 1.0923
 Frc consts  --      6.5875                 6.5585                 6.6200
 IR Inten    --     77.9411                15.5867                35.0439

                    115                    116                    117
                      A                      A                      A
 Frequencies --   3208.5778              3215.1131              3226.5777
 Red. masses --      1.0978                 1.0964                 1.0927
 Frc consts  --      6.6587                 6.6772                 6.7024
 IR Inten    --     33.2538                37.0887                10.5644

 - Thermochemistry -
 -------------------
 Temperature   298.150 Kelvin.  Pressure   1.00000 Atm.
 Atom     1 has atomic number  8 and mass  15.99491

 Molecular mass:   348.07281 amu.
 Principal axes and moments of inertia in atomic units:
                           1         2         3
     Eigenvalues --  6661.578319048.14123**********
           X            0.99865   0.04798  -0.01973
           Y           -0.04861   0.99827  -0.03304
           Z            0.01811   0.03395   0.99926
 This molecule is an asymmetric top.
 Rotational symmetry number  1.
 Warning -- assumption of classical behavior for rotation
           may cause significant error
 Rotational temperatures (Kelvin)      0.01300     0.00957     0.00690
 Rotational constants (GHZ):           0.27092     0.19946     0.14383
 Zero-point vibrational energy     842726.5 (Joules/Mol)
                                  201.41647 (Kcal/Mol)
 Warning -- explicit consideration of  32 degrees of freedom as
           vibrations may cause significant error
 Vibrational temperatures:     25.78    30.98    55.72    56.51    65.71
          (Kelvin)             77.02   102.06   168.04   186.07   237.60
                              247.88   271.11   296.13   380.05   385.05
                              421.80   436.17   471.96   490.61   495.28
                              549.07   569.23   594.00   603.45   604.16
                              671.21   710.57   741.42   792.57   817.54
                              847.55   855.58   903.60   912.31   913.70
                              983.52  1012.03  1022.80  1030.01  1064.70
                             1097.38  1109.72  1118.45  1178.05  1210.83
                             1239.96  1247.15  1278.90  1327.16  1343.97
                             1358.06  1379.74  1405.53  1414.02  1418.23
                             1441.08  1449.27  1456.77  1460.68  1486.43
                             1508.23  1512.80  1518.38  1529.52  1536.56
                             1568.81  1584.26  1598.61  1599.83  1646.04
                             1691.70  1706.23  1709.14  1725.01  1727.24
                             1739.19  1744.93  1761.45  1780.44  1840.56
                             1881.29  1919.17  1941.46  1948.43  1963.69
                             1995.45  2015.75  2086.52  2114.13  2135.98
                             2149.29  2166.61  2175.61  2189.92  2219.65
                             2352.29  2354.58  2360.47  2385.58  4363.74
                             4384.15  4449.80  4456.89  4471.51  4488.70
                             4570.33  4574.02  4576.69  4589.68  4590.39
                             4591.57  4599.55  4600.63  4614.46  4616.43
                             4625.83  4642.33

 Zero-point correction=                           0.320978 (Hartree/Particle)
 Thermal correction to Energy=                    0.341909
 Thermal correction to Enthalpy=                  0.342853
 Thermal correction to Gibbs Free Energy=         0.268363
 Sum of electronic and zero-point Energies=          -1735.217991
 Sum of electronic and thermal Energies=             -1735.197060
 Sum of electronic and thermal Enthalpies=           -1735.196116
 Sum of electronic and thermal Free Energies=        -1735.270606

                     E (Thermal)             CV                S
                      KCal/Mol        Cal/Mol-Kelvin    Cal/Mol-Kelvin
 Total                  214.551             81.418            156.777
 Electronic               0.000              0.000              0.000
 Translational            0.889              2.981             43.436
 Rotational               0.889              2.981             34.980
 Vibrational            212.773             75.456             78.362
 Vibration     1          0.593              1.986              6.852
 Vibration     2          0.593              1.985              6.488
 Vibration     3          0.594              1.981              5.323
 Vibration     4          0.594              1.981              5.295
 Vibration     5          0.595              1.979              4.997
 Vibration     6          0.596              1.976              4.683
 Vibration     7          0.598              1.968              4.127
 Vibration     8          0.608              1.935              3.153
 Vibration     9          0.612              1.924              2.956
 Vibration    10          0.624              1.885              2.490
 Vibration    11          0.626              1.877              2.410
 Vibration    12          0.633              1.856              2.243
 Vibration    13          0.640              1.832              2.080
 Vibration    14          0.671              1.739              1.634
 Vibration    15          0.673              1.733              1.611
 Vibration    16          0.688              1.686              1.456
 Vibration    17          0.695              1.668              1.399
 Vibration    18          0.711              1.619              1.270
 Vibration    19          0.721              1.594              1.208
 Vibration    20          0.723              1.587              1.192
 Vibration    21          0.751              1.509              1.033
 Vibration    22          0.762              1.479              0.979
 Vibration    23          0.777              1.442              0.917
 Vibration    24          0.782              1.428              0.894
 Vibration    25          0.783              1.427              0.892
 Vibration    26          0.824              1.324              0.747
 Vibration    27          0.850              1.264              0.674
 Vibration    28          0.870              1.216              0.621
 Vibration    29          0.906              1.138              0.542
 Vibration    30          0.924              1.100              0.508
 Vibration    31          0.946              1.055              0.469
 Vibration    32          0.952              1.043              0.459

 Optimization completed.
    -- Stationary point found.
 Normal termination of Gaussian 16 at Mon Sep 21 06:44:39 2020.

 ----------------------------------------------------------------------
 #p b3lyp/6-31G(d) scrf=(iefpcm,read,solvent=water) geom=allcheck guess
 =read
 ----------------------------------------------------------------------

 Structure from the checkpoint file:  "SM36_m1.a.8.pdb.xyz.mst.a.w.chk"
 -------------------
 SM36_m1.a.8.pdb.xyz
 -------------------
 Charge = -1 Multiplicity = 1

 SCF Done:  E(RB3LYP) =  -1735.53898939     A.U. after    6 cycles
 Normal termination of Gaussian 16 at Mon Sep 21 06:45:46 2020.

 -----------------------------
 #p B3LYP/6-31G* geom=allcheck
 -----------------------------

 Structure from the checkpoint file:  "SM36_m1.a.8.pdb.xyz.mst.a.w.chk"
 -------------------
 SM36_m1.a.8.pdb.xyz
 -------------------
 Charge = -1 Multiplicity = 1

 SCF Done:  E(RB3LYP) =  -1735.36386273     A.U. after   15 cycles
 Normal termination of Gaussian 16 at Mon Sep 21 06:47:15 2020.
 Gaussian 16:  ES64L-G16RevB.01 20-Dec-2017

 ----------------------------------------------------------------------
 #p mp2/aug-cc-pVDZ scf=(MaxCycle=2000,NoVarAcc,NoIncFock) maxdisk=120G
 B geom=allcheck
 ----------------------------------------------------------------------

 Structure from the checkpoint file:  "SM36_m1.a.8.pdb.xyz.mst.a.w.chk"
 -------------------
 SM36_m1.a.8.pdb.xyz
 -------------------
 Charge = -1 Multiplicity = 1

                         Standard orientation:
 ---------------------------------------------------------------------
 Center     Atomic      Atomic             Coordinates (Angstroms)
 Number     Number       Type             X           Y           Z
 ---------------------------------------------------------------------
      1          8           0        3.350602   -1.107979    1.693343
      2         16           0        2.321463   -1.028865    0.615978
      3          7           0        0.896367   -1.151135    1.290562
      4          6           0       -0.280215   -1.558007    0.535739
      5          6           0       -0.297984   -3.041799    0.037277
      6         16           0       -1.151780   -2.599739   -1.563582
      7          8           0       -2.674246   -2.700695   -1.398211
      8          6           0       -0.538510   -0.969611   -0.896061
      9          6           0       -1.503092   -1.349410    1.464846
     10          6           0       -1.749653    0.081764    1.992163
     11          6           0       -2.428485    1.047074    1.037422
     12          6           0       -3.750206    0.827735    0.614712
     13          6           0       -4.389636    1.721016   -0.246396
     14          6           0       -3.719229    2.860621   -0.702160
     15          6           0       -2.407072    3.095606   -0.286429
     16          6           0       -1.771626    2.196902    0.575840
     17          6           0        2.520434    0.654534   -0.043805
     18          6           0        2.312628    1.746338    0.808445
     19          6           0        2.481795    3.043980    0.325773
     20          6           0        2.855430    3.255184   -1.006563
     21          6           0        3.062780    2.164214   -1.852147
     22          6           0        2.899233    0.860742   -1.371574
     23          8           0        2.572560   -1.924832   -0.558960
     24          1           0       -0.856509   -3.771878    0.630442
     25          1           0        0.697508   -3.413980   -0.209606
     26          1           0       -1.268508   -0.166731   -1.002061
     27          1           0        0.373907   -0.724889   -1.442976
     28          1           0       -1.339995   -2.002539    2.332052
     29          1           0       -2.398586   -1.722249    0.954913
     30          1           0       -0.796200    0.502799    2.325504
     31          1           0       -2.379364   -0.010491    2.887455
     32          1           0       -4.285949   -0.050766    0.967846
     33          1           0       -5.413333    1.530516   -0.558391
     34          1           0       -4.216319    3.557590   -1.371445
     35          1           0       -1.875218    3.978603   -0.631553
     36          1           0       -0.748119    2.387506    0.889900
     37          1           0        2.020768    1.582037    1.841504
     38          1           0        2.323390    3.890621    0.987957
     39          1           0        2.984085    4.266903   -1.380621
     40          1           0        3.355033    2.323372   -2.886470
     41          1           0        3.063057    0.005931   -2.018591
 ---------------------------------------------------------------------

 SCF Done:  E(RHF) =  -1728.31911756     A.U. after   16 cycles
 E2 =    -0.3464583557D+01 EUMP2 =    -0.17317837011159D+04

 The electronic state is 1-A.
 Alpha  occ. eigenvalues --  -92.05549 -91.94569 -20.39783 -20.39640 -20.38461
 Alpha  occ. eigenvalues --  -15.38407 -11.17180 -11.15945 -11.15772 -11.15712
 Alpha  occ. eigenvalues --  -11.15664 -11.15604 -11.15568 -11.15532 -11.15461
 Alpha  occ. eigenvalues --  -11.15290 -11.15083 -11.14817 -11.14695 -11.14362
 Alpha  occ. eigenvalues --  -11.14051 -11.12956 -11.11745  -9.02205  -8.93474
 Alpha  occ. eigenvalues --   -6.70776  -6.70678  -6.70630  -6.61703  -6.61567
 Alpha  occ. eigenvalues --   -6.61449  -1.27919  -1.20028  -1.15754  -1.06908
 Alpha  occ. eigenvalues --   -1.06419  -1.05966  -0.97422  -0.96043  -0.93056
 Alpha  occ. eigenvalues --   -0.92774  -0.92565  -0.89055  -0.81763  -0.80093
 Alpha  occ. eigenvalues --   -0.75950  -0.73843  -0.73791  -0.72526  -0.69029
 Alpha  occ. eigenvalues --   -0.67573  -0.62753  -0.60670  -0.59867  -0.56072
 Alpha  occ. eigenvalues --   -0.54672  -0.54549  -0.53974  -0.52729  -0.52106
 Alpha  occ. eigenvalues --   -0.51758  -0.49890  -0.49735  -0.49584  -0.48158
 Alpha  occ. eigenvalues --   -0.47462  -0.46329  -0.45212  -0.44804  -0.42905
 Alpha  occ. eigenvalues --   -0.42509  -0.41572  -0.41450  -0.40578  -0.40470
 Alpha  occ. eigenvalues --   -0.40172  -0.39205  -0.37875  -0.36487  -0.36015
 Alpha  occ. eigenvalues --   -0.34748  -0.33088  -0.31429  -0.29616  -0.28051
 Alpha  occ. eigenvalues --   -0.26860  -0.25018  -0.24840  -0.24655  -0.23710
 Alpha  occ. eigenvalues --   -0.22132  -0.20743
 Alpha virt. eigenvalues --    0.09353   0.09993   0.10762   0.10953   0.11691
 Alpha virt. eigenvalues --    0.11944   0.12786   0.12964   0.14032   0.14384
 Alpha virt. eigenvalues --    0.14712   0.15076   0.15281   0.16059   0.16712

 Mulliken charges:
               1
     1  O   -1.269912
     2  S    2.827113
     3  N   -1.807942
     4  C    0.836292
     5  C    0.278391
     6  S    1.484552
     7  O   -1.314797
     8  C    0.372922
     9  C    0.527806
    10  C    0.307275
    11  C    0.631317
    12  C    0.662215
    13  C    0.074629
    14  C    0.635934
    15  C   -0.116415
    16  C    1.151417
    17  C    0.480049
    18  C    0.382061
    19  C    0.362461
    20  C    0.588139
    21  C    0.451785
    22  C    0.532019
    23  O   -1.362420
    24  H   -0.314350
    25  H   -0.223422
    26  H   -0.415769
    27  H   -0.254711
    28  H   -0.128039
    29  H   -0.153717
    30  H   -0.312049
    31  H   -0.098509
    32  H   -0.734474
    33  H   -0.501885
    34  H   -0.474166
    35  H   -0.538916
    36  H   -0.655743
    37  H   -0.683340
    38  H   -0.573483
    39  H   -0.501737
    40  H   -0.515801
    41  H   -0.634779
 Sum of Mulliken charges =  -1.00000

 Dipole moment (field-independent basis, Debye):
    X=             -3.8801    Y=              7.8051    Z=             -1.6953  Tot=              8.8797
 Quadrupole moment (field-independent basis, Debye-Ang):
   XX=           -208.6315   YY=           -173.0978   ZZ=           -167.7293
   XY=              6.2854   XZ=            -19.0950   YZ=             -6.3708

 Normal termination of Gaussian 16 at Mon Sep 21 08:53:39 2020.
