 Gaussian 16, Revision B.01,

 ----------------------------------------------------------------------
 #p b3lyp/6-31G(d) opt freq NoSymm scf=(MaxCycle=2000,NoVarAcc,NoIncFoc
 k) scrf=(iefpcm,read,solvent=water)
 ----------------------------------------------------------------------

 --------------------
 SM36_m1.a.10.pdb.xyz
 --------------------
 Symbolic Z-matrix:
 Charge = -1 Multiplicity = 1

 SCF Done:  E(RB3LYP) =  -1735.54160646     A.U. after   13 cycles
 SCF Done:  E(RB3LYP) =  -1735.54160944     A.U. after    8 cycles
 SCF Done:  E(RB3LYP) =  -1735.54161050     A.U. after    8 cycles
 SCF Done:  E(RB3LYP) =  -1735.54161334     A.U. after    8 cycles
 SCF Done:  E(RB3LYP) =  -1735.54161219     A.U. after    7 cycles
 SCF Done:  E(RB3LYP) =  -1735.54161228     A.U. after    6 cycles
 SCF Done:  E(RB3LYP) =  -1735.54161219     A.U. after    6 cycles
 SCF Done:  E(RB3LYP) =  -1735.54161220     A.U. after    6 cycles
 Optimization completed.
    -- Stationary point found.
 Normal termination of Gaussian 16 at Mon Sep 21 18:46:03 2020.

 --------------------------------------------------------------------
 #P Geom=AllCheck Guess=TCheck SCRF=Check GenChk RB3LYP/6-31G(d) Freq
 --------------------------------------------------------------------

 Structure from the checkpoint file:  "SM36_m1.a.10.pdb.xyz.mst.a.w.chk"
 --------------------
 SM36_m1.a.10.pdb.xyz
 --------------------
 Charge = -1 Multiplicity = 1

 SCF Done:  E(RB3LYP) =  -1735.54161220     A.U. after    1 cycles

  Exact polarizability: 367.989   4.574 292.377 -19.533 -18.167 251.226
 Approx polarizability: 392.866   1.407 336.460 -24.030 -26.682 309.551

                      1                      2                      3
                      A                      A                      A
 Frequencies --     16.1817                18.7459                23.3585
 Red. masses --      7.2693                 3.7606                 4.8762
 Frc consts  --      0.0011                 0.0008                 0.0016
 IR Inten    --      2.8720                 0.0231                 0.1642

                      4                      5                      6
                      A                      A                      A
 Frequencies --     33.2791                52.3595                64.6649
 Red. masses --      4.2347                 7.2419                 4.6960
 Frc consts  --      0.0028                 0.0117                 0.0116
 IR Inten    --      0.1191                 1.6447                 1.9066

                      7                      8                      9
                      A                      A                      A
 Frequencies --     89.4495               103.4327               115.6670
 Red. masses --      5.9539                 4.7610                 8.5967
 Frc consts  --      0.0281                 0.0300                 0.0678
 IR Inten    --      3.6088                 6.7615                 6.0193

                     10                     11                     12
                      A                      A                      A
 Frequencies --    164.9891               167.0772               182.2124
 Red. masses --      4.1352                 5.5308                 4.3987
 Frc consts  --      0.0663                 0.0910                 0.0860
 IR Inten    --      8.1037                 1.1253                10.0273

                     13                     14                     15
                      A                      A                      A
 Frequencies --    215.7739               230.0624               258.2742
 Red. masses --      6.8940                 6.0962                 4.2881
 Frc consts  --      0.1891                 0.1901                 0.1685
 IR Inten    --     25.6537                 5.7994                 7.1527

                     16                     17                     18
                      A                      A                      A
 Frequencies --    285.2011               300.3798               320.0660
 Red. masses --      4.5580                 7.1507                 3.1190
 Frc consts  --      0.2184                 0.3801                 0.1883
 IR Inten    --      3.2388                 7.3602                 2.7190

                     19                     20                     21
                      A                      A                      A
 Frequencies --    327.6720               348.6817               372.7905
 Red. masses --      2.3241                 3.6365                 3.6721
 Frc consts  --      0.1470                 0.2605                 0.3007
 IR Inten    --      5.3929                11.5142                 5.0091

                     22                     23                     24
                      A                      A                      A
 Frequencies --    406.7159               410.7053               412.4830
 Red. masses --      3.9870                 4.3909                 3.1845
 Frc consts  --      0.3886                 0.4364                 0.3192
 IR Inten    --     20.6371                 4.5890                 7.9005

                     25                     26                     27
                      A                      A                      A
 Frequencies --    418.0848               470.1700               495.7451
 Red. masses --      2.9746                 4.8134                 4.5518
 Frc consts  --      0.3063                 0.6269                 0.6591
 IR Inten    --      0.0550                 8.2312                 6.8157

                     28                     29                     30
                      A                      A                      A
 Frequencies --    522.0692               545.7610               574.1414
 Red. masses --      3.2294                 6.0826                 8.6483
 Frc consts  --      0.5186                 1.0674                 1.6796
 IR Inten    --     12.7136               113.4042               202.0216

                     31                     32                     33
                      A                      A                      A
 Frequencies --    595.6613               607.0706               628.1042
 Red. masses --      5.6385                 4.7565                 6.4339
 Frc consts  --      1.1787                 1.0328                 1.4955
 IR Inten    --     70.3313                 5.5786                 0.2908

                     34                     35                     36
                      A                      A                      A
 Frequencies --    634.6250               646.0856               694.5202
 Red. masses --      6.3311                 4.4407                 5.0395
 Frc consts  --      1.5023                 1.0922                 1.4322
 IR Inten    --      0.4111                37.5049                26.8814

                     37                     38                     39
                      A                      A                      A
 Frequencies --    702.7032               712.4293               716.0386
 Red. masses --      2.4019                 5.4218                 1.9490
 Frc consts  --      0.6988                 1.6213                 0.5888
 IR Inten    --     48.8177                67.5945                33.6320

                     40                     41                     42
                      A                      A                      A
 Frequencies --    759.6718               762.6388               778.2523
 Red. masses --      1.8572                 1.5787                 1.7053
 Frc consts  --      0.6315                 0.5410                 0.6085
 IR Inten    --     50.1093                39.3047                63.6362

                     43                     44                     45
                      A                      A                      A
 Frequencies --    793.4063               823.2059               837.0776
 Red. masses --      2.5439                 2.3170                 2.5355
 Frc consts  --      0.9435                 0.9251                 1.0468
 IR Inten    --      2.6234                27.4645                22.5766

                     46                     47                     48
                      A                      A                      A
 Frequencies --    858.8977               864.6747               871.8366
 Red. masses --      1.2523                 1.2642                 2.4164
 Frc consts  --      0.5443                 0.5569                 1.0822
 IR Inten    --      0.1168                 0.8734                13.1686

                     49                     50                     51
                      A                      A                      A
 Frequencies --    921.1916               929.3738               931.1441
 Red. masses --      2.3738                 1.4730                 1.4084
 Frc consts  --      1.1869                 0.7496                 0.7195
 IR Inten    --     26.0072                 7.9106                 7.5574

                     52                     53                     54
                      A                      A                      A
 Frequencies --    965.0123               974.6439               979.5392
 Red. masses --      2.3971                 1.3539                 1.3576
 Frc consts  --      1.3152                 0.7577                 0.7675
 IR Inten    --    169.2051                 0.1183                 0.4462

                     55                     56                     57
                      A                      A                      A
 Frequencies --    999.6677              1001.7509              1004.8940
 Red. masses --      1.5935                 2.0406                 1.2578
 Frc consts  --      0.9382                 1.2065                 0.7484
 IR Inten    --      9.2631                15.5591                 0.1102

                     58                     59                     60
                      A                      A                      A
 Frequencies --   1013.1336              1015.3073              1030.8615
 Red. masses --      5.5931                 5.9944                 5.8118
 Frc consts  --      3.3825                 3.6408                 3.6389
 IR Inten    --      6.6608                 0.5931               188.5797

                     61                     62                     63
                      A                      A                      A
 Frequencies --   1047.5333              1049.0435              1055.6039
 Red. masses --      2.7037                 1.1697                 2.2554
 Frc consts  --      1.7480                 0.7584                 1.4807
 IR Inten    --     11.5258                13.1826                14.6860

                     64                     65                     66
                      A                      A                      A
 Frequencies --   1060.4826              1068.8059              1089.6046
 Red. masses --      3.0730                 3.1123                 2.0706
 Frc consts  --      2.0362                 2.0948                 1.4484
 IR Inten    --     78.5308               145.2424                28.0034

                     67                     68                     69
                      A                      A                      A
 Frequencies --   1100.9007              1111.1686              1121.0290
 Red. masses --      1.5977                 3.2150                 2.7539
 Frc consts  --      1.1409                 2.3388                 2.0391
 IR Inten    --     20.5647               104.0980               302.1090

                     70                     71                     72
                      A                      A                      A
 Frequencies --   1136.6142              1178.6053              1185.3880
 Red. masses --      2.1051                10.4497                 1.0943
 Frc consts  --      1.6023                 8.5525                 0.9060
 IR Inten    --    213.0740               386.1931                 0.2883

                     73                     74                     75
                      A                      A                      A
 Frequencies --   1186.5518              1187.0468              1200.5807
 Red. masses --      1.3195                 1.1190                 1.1543
 Frc consts  --      1.0946                 0.9290                 0.9803
 IR Inten    --      3.0202                 2.6754                 1.6743

                     76                     77                     78
                      A                      A                      A
 Frequencies --   1203.2118              1207.7864              1231.4624
 Red. masses --      1.3169                 1.1538                 2.5760
 Frc consts  --      1.1233                 0.9917                 2.3016
 IR Inten    --     11.2989                 0.9476                 1.4374

                     79                     80                     81
                      A                      A                      A
 Frequencies --   1250.5144              1262.6108              1317.0273
 Red. masses --      2.3693                 1.7530                 1.4186
 Frc consts  --      2.1829                 1.6465                 1.4498
 IR Inten    --     71.0448               107.9593                 1.3804

                     82                     83                     84
                      A                      A                      A
 Frequencies --   1334.2065              1342.6109              1354.2386
 Red. masses --      1.7865                 1.5739                 3.2563
 Frc consts  --      1.8737                 1.6716                 3.5185
 IR Inten    --      2.3339                31.3442                 0.3243

                     85                     86                     87
                      A                      A                      A
 Frequencies --   1358.5748              1372.2226              1401.8612
 Red. masses --      2.6595                 1.2416                 1.4365
 Frc consts  --      2.8922                 1.3775                 1.6633
 IR Inten    --      7.2195                 4.4740                 5.0582

                     88                     89                     90
                      A                      A                      A
 Frequencies --   1453.2442              1470.2221              1484.2694
 Red. masses --      1.0903                 1.1088                 2.1158
 Frc consts  --      1.3567                 1.4122                 2.7463
 IR Inten    --     13.0040                 9.5182                16.7619

                     91                     92                     93
                      A                      A                      A
 Frequencies --   1496.9734              1505.1976              1522.2937
 Red. masses --      2.1389                 1.0862                 2.0422
 Frc consts  --      2.8240                 1.4499                 2.7884
 IR Inten    --      7.9515                 3.4948                 9.0768

                     94                     95                     96
                      A                      A                      A
 Frequencies --   1525.1878              1542.8073              1634.2635
 Red. masses --      1.1028                 2.2051                 5.7111
 Frc consts  --      1.5115                 3.0924                 8.9870
 IR Inten    --      8.0134                20.1033                 0.6291

                     97                     98                     99
                      A                      A                      A
 Frequencies --   1637.3064              1640.3114              1658.4673
 Red. masses --      5.4112                 5.3953                 5.5893
 Frc consts  --      8.5469                 8.5530                 9.0577
 IR Inten    --      0.9305                 1.7183                12.1375

                    100                    101                    102
                      A                      A                      A
 Frequencies --   3042.5706              3053.2295              3084.9577
 Red. masses --      1.0608                 1.0653                 1.1012
 Frc consts  --      5.7858                 5.8511                 6.1748
 IR Inten    --      4.5395                72.6646                21.0351

                    103                    104                    105
                      A                      A                      A
 Frequencies --   3097.7151              3105.3426              3115.2028
 Red. masses --      1.0565                 1.0576                 1.0978
 Frc consts  --      5.9733                 6.0087                 6.2769
 IR Inten    --     25.0976                 9.8992                44.2658

                    106                    107                    108
                      A                      A                      A
 Frequencies --   3167.2114              3174.4126              3174.9174
 Red. masses --      1.1102                 1.0867                 1.1107
 Frc consts  --      6.5617                 6.4521                 6.5966
 IR Inten    --     12.9383                17.8038                 8.0761

                    109                    110                    111
                      A                      A                      A
 Frequencies --   3180.7897              3189.8443              3190.3562
 Red. masses --      1.0863                 1.0902                 1.0855
 Frc consts  --      6.4754                 6.5356                 6.5097
 IR Inten    --      0.7802                17.9025                 0.8490

                    112                    113                    114
                      A                      A                      A
 Frequencies --   3196.0838              3197.2083              3206.5882
 Red. masses --      1.0941                 1.0886                 1.0924
 Frc consts  --      6.5846                 6.5563                 6.6178
 IR Inten    --     67.9012                14.5967                34.2454

                    115                    116                    117
                      A                      A                      A
 Frequencies --   3208.2861              3214.7270              3229.0848
 Red. masses --      1.0977                 1.0966                 1.0921
 Frc consts  --      6.6570                 6.6769                 6.7092
 IR Inten    --     38.4942                39.1155                10.3971

 - Thermochemistry -
 -------------------
 Temperature   298.150 Kelvin.  Pressure   1.00000 Atm.
 Atom     1 has atomic number  8 and mass  15.99491

 Molecular mass:   348.07281 amu.
 Principal axes and moments of inertia in atomic units:
                           1         2         3
     Eigenvalues --  7926.248688319.66497**********
           X            0.87061  -0.49102  -0.03071
           Y            0.49113   0.87108  -0.00450
           Z            0.02896  -0.01117   0.99952
 This molecule is an asymmetric top.
 Rotational symmetry number  1.
 Warning -- assumption of classical behavior for rotation
           may cause significant error
 Rotational temperatures (Kelvin)      0.01093     0.01041     0.00590
 Rotational constants (GHZ):           0.22769     0.21692     0.12284
 Zero-point vibrational energy     842254.6 (Joules/Mol)
                                  201.30368 (Kcal/Mol)
 Warning -- explicit consideration of  32 degrees of freedom as
           vibrations may cause significant error
 Vibrational temperatures:     23.28    26.97    33.61    47.88    75.33
          (Kelvin)             93.04   128.70   148.82   166.42   237.38
                              240.39   262.16   310.45   331.01   371.60
                              410.34   432.18   460.50   471.45   501.68
                              536.36   585.17   590.91   593.47   601.53
                              676.47   713.27   751.14   785.23   826.06
                              857.02   873.44   903.70   913.08   929.57
                              999.26  1011.03  1025.03  1030.22  1093.00
                             1097.27  1119.73  1141.53  1184.41  1204.37
                             1235.76  1244.07  1254.38  1325.39  1337.16
                             1339.71  1388.44  1402.30  1409.34  1438.30
                             1441.30  1445.82  1457.67  1460.80  1483.18
                             1507.17  1509.34  1518.78  1525.80  1537.77
                             1567.70  1583.95  1598.72  1612.91  1635.33
                             1695.75  1705.51  1707.18  1707.90  1727.37
                             1731.15  1737.74  1771.80  1799.21  1816.62
                             1894.91  1919.63  1931.72  1948.45  1954.69
                             1974.32  2016.97  2090.89  2115.32  2135.53
                             2153.81  2165.64  2190.24  2194.41  2219.76
                             2351.34  2355.72  2360.04  2386.16  4377.58
                             4392.92  4438.57  4456.92  4467.90  4482.08
                             4556.91  4567.27  4568.00  4576.45  4589.47
                             4590.21  4598.45  4600.07  4613.57  4616.01
                             4625.28  4645.93

 Zero-point correction=                           0.320798 (Hartree/Particle)
 Thermal correction to Energy=                    0.341832
 Thermal correction to Enthalpy=                  0.342776
 Thermal correction to Gibbs Free Energy=         0.267424
 Sum of electronic and zero-point Energies=          -1735.220814
 Sum of electronic and thermal Energies=             -1735.199780
 Sum of electronic and thermal Enthalpies=           -1735.198836
 Sum of electronic and thermal Free Energies=        -1735.274188

                     E (Thermal)             CV                S
                      KCal/Mol        Cal/Mol-Kelvin    Cal/Mol-Kelvin
 Total                  214.503             81.441            158.592
 Electronic               0.000              0.000              0.000
 Translational            0.889              2.981             43.436
 Rotational               0.889              2.981             35.226
 Vibrational            212.725             75.480             79.930
 Vibration     1          0.593              1.986              7.055
 Vibration     2          0.593              1.986              6.763
 Vibration     3          0.593              1.985              6.326
 Vibration     4          0.594              1.983              5.624
 Vibration     5          0.596              1.977              4.726
 Vibration     6          0.597              1.971              4.310
 Vibration     7          0.602              1.957              3.672
 Vibration     8          0.605              1.946              3.389
 Vibration     9          0.608              1.936              3.172
 Vibration    10          0.623              1.885              2.492
 Vibration    11          0.624              1.883              2.468
 Vibration    12          0.630              1.864              2.306
 Vibration    13          0.645              1.817              1.994
 Vibration    14          0.652              1.795              1.878
 Vibration    15          0.667              1.749              1.673
 Vibration    16          0.683              1.701              1.502
 Vibration    17          0.693              1.673              1.415
 Vibration    18          0.706              1.635              1.310
 Vibration    19          0.711              1.620              1.272
 Vibration    20          0.726              1.578              1.172
 Vibration    21          0.744              1.528              1.068
 Vibration    22          0.771              1.456              0.938
 Vibration    23          0.775              1.447              0.924
 Vibration    24          0.776              1.443              0.918
 Vibration    25          0.781              1.431              0.898
 Vibration    26          0.827              1.316              0.737
 Vibration    27          0.851              1.259              0.669
 Vibration    28          0.877              1.201              0.605
 Vibration    29          0.901              1.149              0.553
 Vibration    30          0.930              1.087              0.496
 Vibration    31          0.953              1.041              0.457
 Vibration    32          0.966              1.017              0.438

 Optimization completed.
    -- Stationary point found.
 Normal termination of Gaussian 16 at Mon Sep 21 19:11:07 2020.

 ----------------------------------------------------------------------
 #p b3lyp/6-31G(d) scrf=(iefpcm,read,solvent=water) geom=allcheck guess
 =read
 ----------------------------------------------------------------------

 Structure from the checkpoint file:  "SM36_m1.a.10.pdb.xyz.mst.a.w.chk"
 --------------------
 SM36_m1.a.10.pdb.xyz
 --------------------
 Charge = -1 Multiplicity = 1

 SCF Done:  E(RB3LYP) =  -1735.54160951     A.U. after    7 cycles
 Normal termination of Gaussian 16 at Mon Sep 21 19:12:14 2020.

 -----------------------------
 #p B3LYP/6-31G* geom=allcheck
 -----------------------------

 Structure from the checkpoint file:  "SM36_m1.a.10.pdb.xyz.mst.a.w.chk"
 --------------------
 SM36_m1.a.10.pdb.xyz
 --------------------
 Charge = -1 Multiplicity = 1

 SCF Done:  E(RB3LYP) =  -1735.36491473     A.U. after   15 cycles
 Normal termination of Gaussian 16 at Mon Sep 21 19:13:36 2020.
 Gaussian 16:  ES64L-G16RevB.01 20-Dec-2017

 ----------------------------------------------------------------------
 #p mp2/aug-cc-pVDZ scf=(MaxCycle=2000,NoVarAcc,NoIncFock) maxdisk=120G
 B geom=allcheck
 ----------------------------------------------------------------------

 Structure from the checkpoint file:  "SM36_m1.a.10.pdb.xyz.mst.a.w.chk"
 --------------------
 SM36_m1.a.10.pdb.xyz
 --------------------
 Charge = -1 Multiplicity = 1

                         Standard orientation:
 ---------------------------------------------------------------------
 Center     Atomic      Atomic             Coordinates (Angstroms)
 Number     Number       Type             X           Y           Z
 ---------------------------------------------------------------------
      1          8           0        2.111628   -3.312060   -0.676936
      2         16           0        1.521844   -2.134562    0.026815
      3          7           0        1.805638   -0.851908   -0.855231
      4          6           0        1.807197    0.478042   -0.253553
      5          6           0        2.504578    1.475174   -1.227235
      6         16           0        3.458805    2.318193    0.137223
      7          8           0        2.658651    3.510801    0.675615
      8          6           0        2.839737    0.731625    0.897115
      9          6           0        0.420598    1.018957    0.181608
     10          6           0       -0.640488    1.074735   -0.935262
     11          6           0       -1.921647    1.740598   -0.475285
     12          6           0       -2.046540    3.138826   -0.489253
     13          6           0       -3.214040    3.762826   -0.044790
     14          6           0       -4.284359    2.995834    0.424809
     15          6           0       -4.174509    1.603272    0.444172
     16          6           0       -3.003691    0.983883   -0.001998
     17          6           0       -0.254650   -2.529214    0.052159
     18          6           0       -0.907807   -2.808815   -1.154934
     19          6           0       -2.264111   -3.133424   -1.150525
     20          6           0       -2.971753   -3.179862    0.056515
     21          6           0       -2.316810   -2.900754    1.257771
     22          6           0       -0.956204   -2.575643    1.258313
     23          8           0        1.894541   -2.007975    1.471356
     24          1           0        1.885481    2.172960   -1.795926
     25          1           0        3.220959    0.979358   -1.887575
     26          1           0        2.460790    0.871774    1.912177
     27          1           0        3.663174    0.014678    0.895586
     28          1           0        0.560997    2.026900    0.591043
     29          1           0        0.049012    0.396762    1.006300
     30          1           0       -0.854556    0.061194   -1.286681
     31          1           0       -0.238629    1.628620   -1.793069
     32          1           0       -1.219957    3.743477   -0.856875
     33          1           0       -3.289843    4.846954   -0.069307
     34          1           0       -5.195314    3.478739    0.768079
     35          1           0       -5.002009    0.996529    0.803121
     36          1           0       -2.930704   -0.100992    0.012878
     37          1           0       -0.357664   -2.777708   -2.090906
     38          1           0       -2.769187   -3.353599   -2.086915
     39          1           0       -4.027472   -3.435889    0.058095
     40          1           0       -2.860889   -2.940041    2.197483
     41          1           0       -0.435605   -2.366934    2.186465
 ---------------------------------------------------------------------

 SCF Done:  E(RHF) =  -1728.32267351     A.U. after   16 cycles
 E2 =    -0.3462621871D+01 EUMP2 =    -0.17317852953783D+04

 The electronic state is 1-A.
 Alpha  occ. eigenvalues --  -92.05444 -91.95138 -20.40398 -20.39438 -20.38313
 Alpha  occ. eigenvalues --  -15.38534 -11.17359 -11.15939 -11.15919 -11.15857
 Alpha  occ. eigenvalues --  -11.15734 -11.15669 -11.15657 -11.15567 -11.15543
 Alpha  occ. eigenvalues --  -11.15387 -11.15246 -11.15025 -11.15025 -11.14789
 Alpha  occ. eigenvalues --  -11.14703 -11.12943 -11.11631  -9.02092  -8.94074
 Alpha  occ. eigenvalues --   -6.70663  -6.70564  -6.70520  -6.62304  -6.62169
 Alpha  occ. eigenvalues --   -6.62051  -1.27773  -1.20696  -1.15595  -1.07037
 Alpha  occ. eigenvalues --   -1.06445  -1.06198  -0.97651  -0.96482  -0.93014
 Alpha  occ. eigenvalues --   -0.92769  -0.92713  -0.89050  -0.82143  -0.80173
 Alpha  occ. eigenvalues --   -0.76231  -0.74007  -0.73711  -0.72691  -0.69798
 Alpha  occ. eigenvalues --   -0.67146  -0.62916  -0.60709  -0.59999  -0.56038
 Alpha  occ. eigenvalues --   -0.55125  -0.54773  -0.53904  -0.53232  -0.52478
 Alpha  occ. eigenvalues --   -0.51204  -0.50229  -0.49782  -0.49621  -0.48360
 Alpha  occ. eigenvalues --   -0.47663  -0.46605  -0.45642  -0.44353  -0.43338
 Alpha  occ. eigenvalues --   -0.42814  -0.41875  -0.41558  -0.40909  -0.40395
 Alpha  occ. eigenvalues --   -0.39895  -0.39472  -0.38364  -0.36963  -0.36207
 Alpha  occ. eigenvalues --   -0.35226  -0.33217  -0.31110  -0.29644  -0.28226
 Alpha  occ. eigenvalues --   -0.25838  -0.25068  -0.25009  -0.24613  -0.24456
 Alpha  occ. eigenvalues --   -0.23606  -0.20427
 Alpha virt. eigenvalues --    0.09131   0.09804   0.10631   0.11070   0.11795
 Alpha virt. eigenvalues --    0.12023   0.12692   0.13256   0.13836   0.14361
 Alpha virt. eigenvalues --    0.14692   0.14975   0.15380   0.16094   0.16563

 Mulliken charges:
               1
     1  O   -1.265682
     2  S    2.862250
     3  N   -1.876934
     4  C    0.659151
     5  C    0.617777
     6  S    1.397994
     7  O   -1.256142
     8  C    0.473202
     9  C   -0.107838
    10  C    1.185256
    11  C    0.290997
    12  C    0.895929
    13  C   -0.046784
    14  C    0.603733
    15  C    0.085641
    16  C    0.892585
    17  C    0.535562
    18  C    0.223773
    19  C    0.274678
    20  C    0.734977
    21  C    0.351249
    22  C    0.654339
    23  O   -1.381189
    24  H   -0.220003
    25  H   -0.289561
    26  H   -0.269149
    27  H   -0.252058
    28  H   -0.196415
    29  H   -0.219294
    30  H   -0.286043
    31  H   -0.295901
    32  H   -0.726250
    33  H   -0.496429
    34  H   -0.462708
    35  H   -0.522551
    36  H   -0.573888
    37  H   -0.711798
    38  H   -0.544937
    39  H   -0.511698
    40  H   -0.539175
    41  H   -0.686665
 Sum of Mulliken charges =  -1.00000

 Dipole moment (field-independent basis, Debye):
    X=             -8.6685    Y=              2.4546    Z=             -1.1385  Tot=              9.0810
 Quadrupole moment (field-independent basis, Debye-Ang):
   XX=           -182.0147   YY=           -212.0419   ZZ=           -160.0251
   XY=             11.3063   XZ=             -5.2826   YZ=             -7.6947

 Normal termination of Gaussian 16 at Mon Sep 21 22:13:05 2020.
