 Gaussian 16, Revision B.01,

 ----------------------------------------------------------------------
 #p b3lyp/6-31G(d) opt freq NoSymm scf=(MaxCycle=2000,NoVarAcc,NoIncFoc
 k) scrf=(iefpcm,read,solvent=water)
 ----------------------------------------------------------------------

 --------------------
 SM36_m0.n.12.pdb.xyz
 --------------------
 Symbolic Z-matrix:
 Charge =  0 Multiplicity = 1

 SCF Done:  E(RB3LYP) =  -1735.93792272     A.U. after   13 cycles
 SCF Done:  E(RB3LYP) =  -1735.93821328     A.U. after   10 cycles
 SCF Done:  E(RB3LYP) =  -1735.93825848     A.U. after    9 cycles
 SCF Done:  E(RB3LYP) =  -1735.93778281     A.U. after   11 cycles
 SCF Done:  E(RB3LYP) =  -1735.93820097     A.U. after   10 cycles
 SCF Done:  E(RB3LYP) =  -1735.93822510     A.U. after   10 cycles
 SCF Done:  E(RB3LYP) =  -1735.93825836     A.U. after    9 cycles
 SCF Done:  E(RB3LYP) =  -1735.93807472     A.U. after   11 cycles
 SCF Done:  E(RB3LYP) =  -1735.93820551     A.U. after   10 cycles
 SCF Done:  E(RB3LYP) =  -1735.93826049     A.U. after   10 cycles
 SCF Done:  E(RB3LYP) =  -1735.93814855     A.U. after   10 cycles
 SCF Done:  E(RB3LYP) =  -1735.93813737     A.U. after    8 cycles
 SCF Done:  E(RB3LYP) =  -1735.93814038     A.U. after    9 cycles
 SCF Done:  E(RB3LYP) =  -1735.93814013     A.U. after    8 cycles
 SCF Done:  E(RB3LYP) =  -1735.93814036     A.U. after    8 cycles
 SCF Done:  E(RB3LYP) =  -1735.93814038     A.U. after    7 cycles
 Optimization completed.
    -- Stationary point found.
 Normal termination of Gaussian 16 at Mon Sep 21 07:16:07 2020.

 --------------------------------------------------------------------
 #P Geom=AllCheck Guess=TCheck SCRF=Check GenChk RB3LYP/6-31G(d) Freq
 --------------------------------------------------------------------

 Structure from the checkpoint file:  "SM36_m0.n.12.pdb.xyz.mst.n.w.chk"
 --------------------
 SM36_m0.n.12.pdb.xyz
 --------------------
 Charge =  0 Multiplicity = 1

 SCF Done:  E(RB3LYP) =  -1735.93814038     A.U. after    1 cycles

  Exact polarizability: 327.948  -2.868 277.745 -43.959   2.879 277.780
 Approx polarizability: 352.047   5.579 329.485 -50.938   2.876 333.490

                      1                      2                      3
                      A                      A                      A
 Frequencies --      9.1820                15.9652                24.1522
 Red. masses --      6.0719                 6.1959                 3.9159
 Frc consts  --      0.0003                 0.0009                 0.0013
 IR Inten    --      0.6260                 1.5965                 0.1179

                      4                      5                      6
                      A                      A                      A
 Frequencies --     39.5538                43.4323                53.4474
 Red. masses --      3.8450                 6.4583                 6.6792
 Frc consts  --      0.0035                 0.0072                 0.0112
 IR Inten    --      0.0218                 0.5583                 0.3158

                      7                      8                      9
                      A                      A                      A
 Frequencies --     90.3063               114.1227               141.9403
 Red. masses --      7.2471                 4.6632                 6.7804
 Frc consts  --      0.0348                 0.0358                 0.0805
 IR Inten    --     13.7808                 1.4250                 9.4192

                     10                     11                     12
                      A                      A                      A
 Frequencies --    169.4337               175.2281               188.1340
 Red. masses --      5.9554                 5.7112                 5.3453
 Frc consts  --      0.1007                 0.1033                 0.1115
 IR Inten    --      8.6257                 0.7423                 3.8649

                     13                     14                     15
                      A                      A                      A
 Frequencies --    210.0789               243.7533               268.3895
 Red. masses --      4.8534                 8.8049                 4.5788
 Frc consts  --      0.1262                 0.3082                 0.1943
 IR Inten    --     19.3084                 2.2285                 1.0782

                     16                     17                     18
                      A                      A                      A
 Frequencies --    304.0333               307.4652               330.1279
 Red. masses --      3.0668                 7.6841                 3.0398
 Frc consts  --      0.1670                 0.4280                 0.1952
 IR Inten    --      0.9480                10.3255                 2.7880

                     19                     20                     21
                      A                      A                      A
 Frequencies --    344.7225               353.0860               385.6854
 Red. masses --      3.9217                 2.3700                 3.3838
 Frc consts  --      0.2746                 0.1741                 0.2966
 IR Inten    --     12.0388                 7.5978                 2.3205

                     22                     23                     24
                      A                      A                      A
 Frequencies --    396.3796               409.4238               411.0102
 Red. masses --      2.6450                 3.7428                 3.1220
 Frc consts  --      0.2449                 0.3697                 0.3107
 IR Inten    --      3.7258                 9.1099                 0.0284

                     25                     26                     27
                      A                      A                      A
 Frequencies --    418.6646               464.5891               479.8194
 Red. masses --      2.9500                 2.9978                 3.3394
 Frc consts  --      0.3046                 0.3812                 0.4530
 IR Inten    --      0.0310                24.1218                 3.7864

                     28                     29                     30
                      A                      A                      A
 Frequencies --    502.7417               519.5564               551.9713
 Red. masses --      2.5215                 2.9449                 4.8802
 Frc consts  --      0.3755                 0.4684                 0.8760
 IR Inten    --     83.3256                50.2904               158.9005

                     31                     32                     33
                      A                      A                      A
 Frequencies --    569.4638               587.2134               599.9889
 Red. masses --      5.1279                 4.8191                 3.6450
 Frc consts  --      0.9798                 0.9791                 0.7731
 IR Inten    --    140.7528               234.0061                12.0901

                     34                     35                     36
                      A                      A                      A
 Frequencies --    625.6461               633.7679               638.5950
 Red. masses --      6.4439                 6.3250                 4.4919
 Frc consts  --      1.4861                 1.4968                 1.0793
 IR Inten    --      0.1016                 0.2510                28.1976

                     37                     38                     39
                      A                      A                      A
 Frequencies --    697.0220               711.7657               716.0312
 Red. masses --      2.5409                 3.6120                 2.0600
 Frc consts  --      0.7273                 1.0781                 0.6223
 IR Inten    --     39.6093                18.4014                19.6026

                     40                     41                     42
                      A                      A                      A
 Frequencies --    721.3671               747.4201               763.8310
 Red. masses --      5.9872                 2.1567                 1.4721
 Frc consts  --      1.8356                 0.7099                 0.5060
 IR Inten    --     68.7819                45.3769                39.3062

                     43                     44                     45
                      A                      A                      A
 Frequencies --    778.2085               779.8984               830.0845
 Red. masses --      2.2628                 2.8323                 2.1702
 Frc consts  --      0.8074                 1.0150                 0.8810
 IR Inten    --     10.0471                 7.6895                38.4712

                     46                     47                     48
                      A                      A                      A
 Frequencies --    845.1163               859.2215               865.3410
 Red. masses --      2.2914                 1.2506                 1.2545
 Frc consts  --      0.9642                 0.5440                 0.5535
 IR Inten    --     49.1568                 0.1638                 0.3777

                     49                     50                     51
                      A                      A                      A
 Frequencies --    904.5107               918.3019               944.8509
 Red. masses --      2.0260                 1.9779                 1.3103
 Frc consts  --      0.9766                 0.9827                 0.6892
 IR Inten    --     54.9724                55.3447                 1.8018

                     52                     53                     54
                      A                      A                      A
 Frequencies --    946.9205               956.4596               976.8628
 Red. masses --      1.8876                 2.1215                 1.3718
 Frc consts  --      0.9972                 1.1435                 0.7713
 IR Inten    --      6.6778                18.7857                 4.8519

                     55                     56                     57
                      A                      A                      A
 Frequencies --    983.3577               988.4122              1003.7523
 Red. masses --      2.0370                 1.3552                 1.2555
 Frc consts  --      1.1606                 0.7801                 0.7453
 IR Inten    --    147.1057                 0.2240                 0.7676

                     58                     59                     60
                      A                      A                      A
 Frequencies --   1013.6262              1015.9752              1021.2136
 Red. masses --      6.3633                 6.1712                 1.2873
 Frc consts  --      3.8520                 3.7530                 0.7910
 IR Inten    --      9.0144                 1.3795                 0.1391

                     61                     62                     63
                      A                      A                      A
 Frequencies --   1035.7037              1048.8957              1050.3610
 Red. masses --      2.9600                 2.2638                 1.5317
 Frc consts  --      1.8707                 1.4674                 0.9957
 IR Inten    --      0.2162                20.7114                 5.5379

                     64                     65                     66
                      A                      A                      A
 Frequencies --   1056.4658              1063.8463              1081.3768
 Red. masses --      2.3009                 2.7190                 3.5420
 Frc consts  --      1.5131                 1.8131                 2.4404
 IR Inten    --     29.2766               250.8574                92.9226

                     67                     68                     69
                      A                      A                      A
 Frequencies --   1090.1916              1110.9603              1111.6098
 Red. masses --      2.2220                 2.1032                 1.5748
 Frc consts  --      1.5560                 1.5294                 1.1465
 IR Inten    --      5.4567                14.1824                11.2008

                     70                     71                     72
                      A                      A                      A
 Frequencies --   1126.6620              1136.2785              1181.8682
 Red. masses --      3.3698                 2.3868                 1.0904
 Frc consts  --      2.5202                 1.8157                 0.8974
 IR Inten    --    135.4878               140.5630                 0.1644

                     73                     74                     75
                      A                      A                      A
 Frequencies --   1190.9353              1196.4605              1205.9588
 Red. masses --      1.3105                 1.0960                 1.1402
 Frc consts  --      1.0951                 0.9244                 0.9770
 IR Inten    --      3.2747                 0.1358                 0.1744

                     76                     77                     78
                      A                      A                      A
 Frequencies --   1207.0520              1212.8143              1234.9115
 Red. masses --      1.1592                 1.2940                 2.4126
 Frc consts  --      0.9950                 1.1215                 2.1677
 IR Inten    --      0.9438                28.7384                 2.5817

                     79                     80                     81
                      A                      A                      A
 Frequencies --   1248.3812              1266.1214              1292.0202
 Red. masses --      2.2384                 1.6256                 4.3755
 Frc consts  --      2.0553                 1.5354                 4.3035
 IR Inten    --     15.4996               110.6873               181.2077

                     82                     83                     84
                      A                      A                      A
 Frequencies --   1311.8121              1345.0140              1354.7916
 Red. masses --      1.5946                 1.5555                 3.2331
 Frc consts  --      1.6168                 1.6580                 3.4964
 IR Inten    --    137.1925                 3.1257                 3.7429

                     85                     86                     87
                      A                      A                      A
 Frequencies --   1363.5762              1364.3382              1397.6723
 Red. masses --      1.7225                 3.1361                 1.4218
 Frc consts  --      1.8869                 3.4394                 1.6364
 IR Inten    --      1.3108                 1.6549                12.6985

                     88                     89                     90
                      A                      A                      A
 Frequencies --   1406.6994              1463.5777              1471.8165
 Red. masses --      1.3602                 1.2226                 1.0884
 Frc consts  --      1.5858                 1.5430                 1.3892
 IR Inten    --     17.2697                75.3464                10.5444

                     91                     92                     93
                      A                      A                      A
 Frequencies --   1492.4567              1492.6184              1497.4910
 Red. masses --      1.1367                 2.0913                 1.8642
 Frc consts  --      1.4918                 2.7452                 2.4630
 IR Inten    --      2.4682                28.4984                 4.8393

                     94                     95                     96
                      A                      A                      A
 Frequencies --   1508.1679              1524.5798              1524.8715
 Red. masses --      1.1824                 1.7496                 1.2095
 Frc consts  --      1.5846                 2.3960                 1.6570
 IR Inten    --     12.5239                 8.7286                 4.2029

                     97                     98                     99
                      A                      A                      A
 Frequencies --   1543.1948              1640.8043              1641.4943
 Red. masses --      2.2328                 5.5036                 5.5094
 Frc consts  --      3.1328                 8.7299                 8.7465
 IR Inten    --     17.7290                 1.3043                 2.2193

                    100                    101                    102
                      A                      A                      A
 Frequencies --   1645.4804              1661.2629              3053.7483
 Red. masses --      5.6720                 5.6518                 1.0668
 Frc consts  --      9.0485                 9.1899                 5.8615
 IR Inten    --      0.5031                 8.9079                11.5104

                    103                    104                    105
                      A                      A                      A
 Frequencies --   3064.1762              3112.2465              3121.8911
 Red. masses --      1.0663                 1.0985                 1.0575
 Frc consts  --      5.8990                 6.2691                 6.0727
 IR Inten    --     89.2972                10.9195                 4.9919

                    106                    107                    108
                      A                      A                      A
 Frequencies --   3125.6074              3149.1341              3190.4065
 Red. masses --      1.0953                 1.0567                 1.0857
 Frc consts  --      6.3043                 6.1740                 6.5111
 IR Inten    --     37.0420                 9.0695                11.4074

                    109                    110                    111
                      A                      A                      A
 Frequencies --   3192.7579              3193.4934              3202.3027
 Red. masses --      1.1108                 1.0873                 1.0905
 Frc consts  --      6.6712                 6.5331                 6.5884
 IR Inten    --      3.9772                 6.2536                23.2863

                    112                    113                    114
                      A                      A                      A
 Frequencies --   3209.8562              3217.0988              3221.0021
 Red. masses --      1.0942                 1.0865                 1.0979
 Frc consts  --      6.6425                 6.6251                 6.7109
 IR Inten    --     76.6438                 0.3333                29.1804

                    115                    116                    117
                      A                      A                      A
 Frequencies --   3223.8327              3225.1930              3232.5063
 Red. masses --      1.1104                 1.0890                 1.0929
 Frc consts  --      6.7994                 6.6738                 6.7283
 IR Inten    --      3.7545                 9.5042                19.1276

                    118                    119                    120
                      A                      A                      A
 Frequencies --   3238.8520              3248.3671              3499.8031
 Red. masses --      1.0963                 1.0941                 1.0761
 Frc consts  --      6.7756                 6.8023                 7.7655
 IR Inten    --     20.2887                 9.1773               119.4815

 - Thermochemistry -
 -------------------
 Temperature   298.150 Kelvin.  Pressure   1.00000 Atm.
 Atom     1 has atomic number  8 and mass  15.99491

 Molecular mass:   349.08064 amu.
 Principal axes and moments of inertia in atomic units:
                           1         2         3
     Eigenvalues --  4166.29164********************
           X            0.99996  -0.00273  -0.00838
           Y            0.00220   0.99804  -0.06259
           Z            0.00854   0.06257   0.99800
 This molecule is an asymmetric top.
 Rotational symmetry number  1.
 Warning -- assumption of classical behavior for rotation
           may cause significant error
 Rotational temperatures (Kelvin)      0.02079     0.00655     0.00575
 Rotational constants (GHZ):           0.43318     0.13648     0.11991
 Zero-point vibrational energy     880053.7 (Joules/Mol)
                                  210.33789 (Kcal/Mol)
 Warning -- explicit consideration of  33 degrees of freedom as
           vibrations may cause significant error
 Vibrational temperatures:     13.21    22.97    34.75    56.91    62.49
          (Kelvin)             76.90   129.93   164.20   204.22   243.78
                              252.11   270.68   302.26   350.71   386.15
                              437.44   442.37   474.98   495.98   508.01
                              554.92   570.30   589.07   591.35   602.37
                              668.44   690.35   723.33   747.53   794.16
                              819.33   844.87   863.25   900.17   911.85
                              918.80  1002.86  1024.07  1030.21  1037.89
                             1075.37  1098.98  1119.67  1122.10  1194.31
                             1215.93  1236.23  1245.03  1301.39  1321.23
                             1359.43  1362.41  1376.13  1405.49  1414.83
                             1422.10  1444.18  1458.38  1461.76  1469.30
                             1490.15  1509.13  1511.24  1520.02  1530.64
                             1555.86  1568.54  1598.42  1599.36  1621.02
                             1634.85  1700.44  1713.49  1721.44  1735.11
                             1736.68  1744.97  1776.76  1796.14  1821.67
                             1858.93  1887.41  1935.18  1949.24  1961.88
                             1962.98  2010.94  2023.93  2105.76  2117.62
                             2147.31  2147.54  2154.56  2169.92  2193.53
                             2193.95  2220.31  2360.75  2361.74  2367.48
                             2390.19  4393.66  4408.67  4477.83  4491.70
                             4497.05  4530.90  4590.28  4593.67  4594.72
                             4607.40  4618.27  4628.69  4634.30  4638.38
                             4640.33  4650.86  4659.99  4673.68  5035.44

 Zero-point correction=                           0.335195 (Hartree/Particle)
 Thermal correction to Energy=                    0.356308
 Thermal correction to Enthalpy=                  0.357252
 Thermal correction to Gibbs Free Energy=         0.281384
 Sum of electronic and zero-point Energies=          -1735.602946
 Sum of electronic and thermal Energies=             -1735.581832
 Sum of electronic and thermal Enthalpies=           -1735.580888
 Sum of electronic and thermal Free Energies=        -1735.656757

                     E (Thermal)             CV                S
                      KCal/Mol        Cal/Mol-Kelvin    Cal/Mol-Kelvin
 Total                  223.587             82.409            159.679
 Electronic               0.000              0.000              0.000
 Translational            0.889              2.981             43.444
 Rotational               0.889              2.981             35.071
 Vibrational            221.809             76.447             81.164
 Vibration     1          0.593              1.987              8.181
 Vibration     2          0.593              1.986              7.082
 Vibration     3          0.593              1.985              6.260
 Vibration     4          0.594              1.981              5.281
 Vibration     5          0.595              1.980              5.096
 Vibration     6          0.596              1.976              4.686
 Vibration     7          0.602              1.956              3.653
 Vibration     8          0.607              1.938              3.198
 Vibration     9          0.615              1.911              2.778
 Vibration    10          0.625              1.880              2.442
 Vibration    11          0.627              1.873              2.379
 Vibration    12          0.633              1.856              2.246
 Vibration    13          0.642              1.825              2.043
 Vibration    14          0.659              1.773              1.775
 Vibration    15          0.673              1.731              1.607
 Vibration    16          0.695              1.666              1.395
 Vibration    17          0.697              1.660              1.376
 Vibration    18          0.713              1.615              1.259
 Vibration    19          0.723              1.586              1.190
 Vibration    20          0.729              1.569              1.152
 Vibration    21          0.754              1.501              1.017
 Vibration    22          0.763              1.478              0.976
 Vibration    23          0.774              1.450              0.929
 Vibration    24          0.775              1.446              0.923
 Vibration    25          0.782              1.430              0.897
 Vibration    26          0.822              1.329              0.753
 Vibration    27          0.836              1.295              0.711
 Vibration    28          0.858              1.244              0.651
 Vibration    29          0.875              1.207              0.611
 Vibration    30          0.907              1.135              0.540
 Vibration    31          0.926              1.097              0.505
 Vibration    32          0.944              1.059              0.472
 Vibration    33          0.958              1.032              0.450

                           ! Non-Optimized Parameters !
 Normal termination of Gaussian 16 at Mon Sep 21 07:38:16 2020.

 ----------------------------------------------------------------------
 #p b3lyp/6-31G(d) scrf=(iefpcm,read,solvent=water) geom=allcheck guess
 =read
 ----------------------------------------------------------------------

 Structure from the checkpoint file:  "SM36_m0.n.12.pdb.xyz.mst.n.w.chk"
 --------------------
 SM36_m0.n.12.pdb.xyz
 --------------------
 Charge =  0 Multiplicity = 1

 SCF Done:  E(RB3LYP) =  -1735.93811147     A.U. after    7 cycles
 Normal termination of Gaussian 16 at Mon Sep 21 07:39:25 2020.

 -----------------------------
 #p B3LYP/6-31G* geom=allcheck
 -----------------------------

 Structure from the checkpoint file:  "SM36_m0.n.12.pdb.xyz.mst.n.w.chk"
 --------------------
 SM36_m0.n.12.pdb.xyz
 --------------------
 Charge =  0 Multiplicity = 1

 SCF Done:  E(RB3LYP) =  -1735.90976603     A.U. after   15 cycles
 Normal termination of Gaussian 16 at Mon Sep 21 07:40:43 2020.
 Gaussian 16:  ES64L-G16RevB.01 20-Dec-2017

 ----------------------------------------------------------------------
 #p mp2/aug-cc-pVDZ scf=(MaxCycle=2000,NoVarAcc,NoIncFock) maxdisk=120G
 B geom=allcheck
 ----------------------------------------------------------------------

 Structure from the checkpoint file:  "SM36_m0.n.12.pdb.xyz.mst.n.w.chk"
 --------------------
 SM36_m0.n.12.pdb.xyz
 --------------------
 Charge =  0 Multiplicity = 1

                         Standard orientation:
 ---------------------------------------------------------------------
 Center     Atomic      Atomic             Coordinates (Angstroms)
 Number     Number       Type             X           Y           Z
 ---------------------------------------------------------------------
      1          8           0       -1.124120   -1.355537   -1.731929
      2         16           0       -1.568111   -1.537218   -0.341824
      3          7           0       -0.391771   -0.890672    0.657820
      4          6           0        0.227801    0.444705    0.546080
      5          6           0       -0.704621    1.687719    0.546027
      6         16           0        0.362335    2.561831   -0.716425
      7          8           0        1.451870    3.362239   -0.003761
      8          6           0        0.870348    0.768580   -0.825570
      9          6           0        1.232290    0.572599    1.713563
     10          6           0        2.282479   -0.546399    1.869220
     11          6           0        3.373732   -0.600477    0.819860
     12          6           0        4.324281    0.425535    0.709071
     13          6           0        5.337815    0.362820   -0.247499
     14          6           0        5.423791   -0.733965   -1.109732
     15          6           0        4.490108   -1.765922   -1.004358
     16          6           0        3.475534   -1.696852   -0.046188
     17          6           0       -3.103464   -0.633127   -0.150120
     18          6           0       -3.597845    0.096425   -1.232420
     19          6           0       -4.802882    0.785095   -1.084758
     20          6           0       -5.492742    0.736558    0.126470
     21          6           0       -4.989223   -0.004974    1.198512
     22          6           0       -3.789247   -0.700061    1.065674
     23          8           0       -1.785257   -2.892924    0.184736
     24          1           0       -0.587723   -1.165942    1.621889
     25          1           0       -0.804924    2.239506    1.481949
     26          1           0       -1.683750    1.515411    0.097515
     27          1           0        1.945700    0.632012   -0.918756
     28          1           0        0.343032    0.318855   -1.665801
     29          1           0        0.648220    0.622916    2.640528
     30          1           0        1.718149    1.546458    1.599673
     31          1           0        1.778452   -1.515413    1.902634
     32          1           0        2.745662   -0.404182    2.853172
     33          1           0        4.271426    1.279559    1.377815
     34          1           0        6.063836    1.166811   -0.316582
     35          1           0        6.213387   -0.784039   -1.852542
     36          1           0        4.550025   -2.624683   -1.665727
     37          1           0        2.749231   -2.500683    0.034159
     38          1           0       -3.045400    0.115483   -2.163685
     39          1           0       -5.200561    1.355217   -1.916727
     40          1           0       -6.427690    1.274629    0.236077
     41          1           0       -5.532146   -0.045376    2.136082
     42          1           0       -3.398978   -1.285423    1.890218
 ---------------------------------------------------------------------

 SCF Done:  E(RHF) =  -1728.86278928     A.U. after   16 cycles
 E2 =    -0.3448510532D+01 EUMP2 =    -0.17323112998133D+04

 The electronic state is 1-A.
 Alpha  occ. eigenvalues --  -92.23865 -92.07599 -20.56994 -20.56562 -20.51882
 Alpha  occ. eigenvalues --  -15.62725 -11.32630 -11.30347 -11.29052 -11.28684
 Alpha  occ. eigenvalues --  -11.28392 -11.28161 -11.27987 -11.27827 -11.26998
 Alpha  occ. eigenvalues --  -11.25315 -11.24851 -11.24655 -11.24173 -11.24146
 Alpha  occ. eigenvalues --  -11.23892 -11.23763 -11.23755  -9.20612  -9.06426
 Alpha  occ. eigenvalues --   -6.89166  -6.89103  -6.89013  -6.74638  -6.74515
 Alpha  occ. eigenvalues --   -6.74389  -1.46832  -1.34767  -1.32623  -1.26058
 Alpha  occ. eigenvalues --   -1.19877  -1.15739  -1.13388  -1.07440  -1.06970
 Alpha  occ. eigenvalues --   -1.05970  -1.01399  -1.00601  -0.95333  -0.93939
 Alpha  occ. eigenvalues --   -0.90749  -0.87116  -0.85553  -0.83436  -0.82672
 Alpha  occ. eigenvalues --   -0.79487  -0.77667  -0.75922  -0.72002  -0.70620
 Alpha  occ. eigenvalues --   -0.69127  -0.68987  -0.67093  -0.65878  -0.65133
 Alpha  occ. eigenvalues --   -0.64357  -0.63490  -0.63011  -0.62719  -0.62583
 Alpha  occ. eigenvalues --   -0.60293  -0.59433  -0.58180  -0.58032  -0.56153
 Alpha  occ. eigenvalues --   -0.55855  -0.54587  -0.54132  -0.53704  -0.53657
 Alpha  occ. eigenvalues --   -0.52464  -0.52085  -0.51740  -0.50367  -0.49625
 Alpha  occ. eigenvalues --   -0.48648  -0.48000  -0.47819  -0.47672  -0.46137
 Alpha  occ. eigenvalues --   -0.44322  -0.39934  -0.37863  -0.37535  -0.36527
 Alpha  occ. eigenvalues --   -0.33505  -0.32544
 Alpha virt. eigenvalues --    0.02030   0.02814   0.03633   0.04031   0.04320
 Alpha virt. eigenvalues --    0.04625   0.05047   0.05529   0.05951   0.06081
 Alpha virt. eigenvalues --    0.06343   0.06619   0.07311   0.07464   0.07599

 Mulliken charges:
               1
     1  O   -1.254109
     2  S    2.882408
     3  N   -0.904911
     4  C   -0.415487
     5  C    0.934041
     6  S    1.525146
     7  O   -1.265076
     8  C    0.445422
     9  C    0.378977
    10  C    0.501190
    11  C    0.780434
    12  C    0.579520
    13  C    0.100432
    14  C    0.717059
    15  C    0.072959
    16  C    0.695455
    17  C    0.791628
    18  C    0.494986
    19  C    0.363441
    20  C    0.634098
    21  C    0.321251
    22  C    0.031727
    23  O   -1.119949
    24  H   -0.158476
    25  H   -0.381946
    26  H   -0.160761
    27  H   -0.205588
    28  H   -0.308996
    29  H   -0.152873
    30  H   -0.058575
    31  H   -0.262108
    32  H   -0.105839
    33  H   -0.683348
    34  H   -0.489719
    35  H   -0.453151
    36  H   -0.483210
    37  H   -0.719908
    38  H   -0.612857
    39  H   -0.469588
    40  H   -0.442273
    41  H   -0.473980
    42  H   -0.667447
 Sum of Mulliken charges =  -0.00000

 Dipole moment (field-independent basis, Debye):
    X=             -4.7218    Y=              1.0066    Z=              2.7384  Tot=              5.5505
 Quadrupole moment (field-independent basis, Debye-Ang):
   XX=           -129.0024   YY=           -181.9975   ZZ=           -143.4465
   XY=            -18.4343   XZ=             -7.0731   YZ=             -3.3531

 Normal termination of Gaussian 16 at Mon Sep 21 09:43:19 2020.
