 Gaussian 16, Revision B.01,

 ----------------------------------------------------------------------
 #p b3lyp/6-31G(d) opt freq NoSymm scf=(MaxCycle=2000,NoVarAcc,NoIncFoc
 k) scrf=(iefpcm,read,solvent=water)
 ----------------------------------------------------------------------

 -------------------
 SM36_m1.a.3.pdb.xyz
 -------------------
 Symbolic Z-matrix:
 Charge = -1 Multiplicity = 1

 SCF Done:  E(RB3LYP) =  -1735.52721519     A.U. after   13 cycles
 SCF Done:  E(RB3LYP) =  -1735.53904776     A.U. after   11 cycles
 SCF Done:  E(RB3LYP) =  -1735.53699188     A.U. after   13 cycles
 SCF Done:  E(RB3LYP) =  -1735.54026101     A.U. after   11 cycles
 SCF Done:  E(RB3LYP) =  -1735.54068564     A.U. after   11 cycles
 SCF Done:  E(RB3LYP) =  -1735.54126645     A.U. after   11 cycles
 SCF Done:  E(RB3LYP) =  -1735.54141087     A.U. after   10 cycles
 SCF Done:  E(RB3LYP) =  -1735.54151926     A.U. after   10 cycles
 SCF Done:  E(RB3LYP) =  -1735.54150069     A.U. after    9 cycles
 SCF Done:  E(RB3LYP) =  -1735.54155611     A.U. after   10 cycles
 SCF Done:  E(RB3LYP) =  -1735.54168099     A.U. after    8 cycles
 SCF Done:  E(RB3LYP) =  -1735.54168844     A.U. after    9 cycles
 SCF Done:  E(RB3LYP) =  -1735.54168977     A.U. after    8 cycles
 SCF Done:  E(RB3LYP) =  -1735.54168229     A.U. after    9 cycles
 SCF Done:  E(RB3LYP) =  -1735.54168533     A.U. after    9 cycles
 SCF Done:  E(RB3LYP) =  -1735.54168529     A.U. after    6 cycles
 Optimization completed.
    -- Stationary point found.
 Normal termination of Gaussian 16 at Mon Sep 21 07:05:37 2020.

 --------------------------------------------------------------------
 #P Geom=AllCheck Guess=TCheck SCRF=Check GenChk RB3LYP/6-31G(d) Freq
 --------------------------------------------------------------------

 Structure from the checkpoint file:  "SM36_m1.a.3.pdb.xyz.mst.a.w.chk"
 -------------------
 SM36_m1.a.3.pdb.xyz
 -------------------
 Charge = -1 Multiplicity = 1

 SCF Done:  E(RB3LYP) =  -1735.54168529     A.U. after    1 cycles

  Exact polarizability: 307.451 -28.648 346.842  25.512 -21.858 257.544
 Approx polarizability: 345.256 -18.374 376.587  33.497 -21.828 316.715

                      1                      2                      3
                      A                      A                      A
 Frequencies --     14.1691                18.1656                25.6279
 Red. masses --      4.0619                 6.4334                 5.7674
 Frc consts  --      0.0005                 0.0013                 0.0022
 IR Inten    --      0.7028                 2.1448                 0.2986

                      4                      5                      6
                      A                      A                      A
 Frequencies --     43.0482                47.3401                63.9344
 Red. masses --      3.8708                 7.3365                 4.8685
 Frc consts  --      0.0042                 0.0097                 0.0117
 IR Inten    --      0.1078                 1.9526                 2.8348

                      7                      8                      9
                      A                      A                      A
 Frequencies --     90.6583                98.4186               107.8281
 Red. masses --      5.6546                 4.5478                 8.5058
 Frc consts  --      0.0274                 0.0260                 0.0583
 IR Inten    --      6.2933                 3.9822                 5.8490

                     10                     11                     12
                      A                      A                      A
 Frequencies --    160.3170               165.2829               177.7579
 Red. masses --      3.7204                 5.1644                 5.2694
 Frc consts  --      0.0563                 0.0831                 0.0981
 IR Inten    --      9.9401                 1.5509                 6.8070

                     13                     14                     15
                      A                      A                      A
 Frequencies --    214.8309               230.5724               255.9018
 Red. masses --      6.8947                 6.1132                 4.1552
 Frc consts  --      0.1875                 0.1915                 0.1603
 IR Inten    --     26.8287                 5.7228                 7.7411

                     16                     17                     18
                      A                      A                      A
 Frequencies --    283.2294               302.5659               319.3085
 Red. masses --      4.9137                 7.2091                 3.3361
 Frc consts  --      0.2322                 0.3888                 0.2004
 IR Inten    --      2.2781                 7.5521                 1.4181

                     19                     20                     21
                      A                      A                      A
 Frequencies --    328.2530               349.7249               369.9387
 Red. masses --      2.2715                 3.2587                 3.8211
 Frc consts  --      0.1442                 0.2348                 0.3081
 IR Inten    --      5.5340                11.9755                 4.6341

                     22                     23                     24
                      A                      A                      A
 Frequencies --    404.2800               409.7124               412.8052
 Red. masses --      4.0567                 4.6507                 3.0507
 Frc consts  --      0.3906                 0.4600                 0.3063
 IR Inten    --     27.3693                 3.5095                 2.3883

                     25                     26                     27
                      A                      A                      A
 Frequencies --    417.0683               473.0433               492.9300
 Red. masses --      2.9821                 4.7912                 4.4492
 Frc consts  --      0.3056                 0.6317                 0.6370
 IR Inten    --      0.0447                 8.5815                 5.8279

                     28                     29                     30
                      A                      A                      A
 Frequencies --    520.4934               545.6653               573.0823
 Red. masses --      3.2476                 6.0616                 8.3346
 Frc consts  --      0.5184                 1.0634                 1.6128
 IR Inten    --     16.4340               108.5644               191.4301

                     31                     32                     33
                      A                      A                      A
 Frequencies --    596.3555               607.9309               628.2671
 Red. masses --      5.5325                 4.8543                 6.4340
 Frc consts  --      1.1593                 1.0570                 1.4963
 IR Inten    --     74.0417                12.3612                 0.2717

                     34                     35                     36
                      A                      A                      A
 Frequencies --    634.7131               645.4421               697.2242
 Red. masses --      6.3370                 4.4724                 4.9206
 Frc consts  --      1.5041                 1.0978                 1.4093
 IR Inten    --      0.4025                37.8969                25.5823

                     37                     38                     39
                      A                      A                      A
 Frequencies --    703.4964               712.5263               716.0200
 Red. masses --      2.3908                 5.1024                 1.9853
 Frc consts  --      0.6971                 1.5262                 0.5997
 IR Inten    --     51.2486                60.4502                36.7160

                     40                     41                     42
                      A                      A                      A
 Frequencies --    760.0439               762.6027               778.7868
 Red. masses --      1.8821                 1.5906                 1.7214
 Frc consts  --      0.6406                 0.5450                 0.6151
 IR Inten    --     53.6412                37.2168                61.7393

                     43                     44                     45
                      A                      A                      A
 Frequencies --    793.0655               823.8444               835.0517
 Red. masses --      2.4685                 2.2725                 2.5861
 Frc consts  --      0.9147                 0.9088                 1.0625
 IR Inten    --      1.8423                23.8387                24.4429

                     46                     47                     48
                      A                      A                      A
 Frequencies --    858.9191               864.9553               871.7333
 Red. masses --      1.2519                 1.2615                 2.4076
 Frc consts  --      0.5442                 0.5560                 1.0780
 IR Inten    --      0.2213                 0.6906                12.9045

                     49                     50                     51
                      A                      A                      A
 Frequencies --    920.5584               929.3055               931.6273
 Red. masses --      2.3538                 1.4893                 1.3936
 Frc consts  --      1.1752                 0.7578                 0.7127
 IR Inten    --     27.7332                 8.7296                 6.6851

                     52                     53                     54
                      A                      A                      A
 Frequencies --    963.0934               974.5612               980.1243
 Red. masses --      2.3321                 1.3523                 1.3548
 Frc consts  --      1.2745                 0.7567                 0.7668
 IR Inten    --    166.3363                 0.0217                 0.5486

                     55                     56                     57
                      A                      A                      A
 Frequencies --    998.2383              1000.8775              1005.1729
 Red. masses --      2.4137                 1.3854                 1.2553
 Frc consts  --      1.4171                 0.8177                 0.7473
 IR Inten    --     19.3302                 3.6721                 0.0676

                     58                     59                     60
                      A                      A                      A
 Frequencies --   1012.7986              1015.1004              1031.5302
 Red. masses --      5.7494                 6.1420                 5.7355
 Frc consts  --      3.4747                 3.7289                 3.5957
 IR Inten    --      8.0385                 0.3421               181.3327

                     61                     62                     63
                      A                      A                      A
 Frequencies --   1048.4606              1049.3346              1055.7438
 Red. masses --      2.1947                 1.3220                 2.2617
 Frc consts  --      1.4214                 0.8577                 1.4853
 IR Inten    --      7.3215                18.8417                14.4670

                     64                     65                     66
                      A                      A                      A
 Frequencies --   1059.7831              1069.2132              1087.4135
 Red. masses --      3.0578                 3.2111                 2.0916
 Frc consts  --      2.0234                 2.1629                 1.4572
 IR Inten    --     86.2969               142.2903                32.4311

                     67                     68                     69
                      A                      A                      A
 Frequencies --   1103.3275              1112.4698              1121.8789
 Red. masses --      1.5969                 3.2359                 2.7450
 Frc consts  --      1.1454                 2.3595                 2.0356
 IR Inten    --     15.4990               107.7274               302.1166

                     70                     71                     72
                      A                      A                      A
 Frequencies --   1134.4667              1180.1174              1185.5520
 Red. masses --      2.0298                 7.2461                 1.3924
 Frc consts  --      1.5392                 5.9457                 1.1530
 IR Inten    --    197.8019               377.8659                20.0983

                     73                     74                     75
                      A                      A                      A
 Frequencies --   1185.9392              1187.7957              1198.5890
 Red. masses --      1.0971                 1.1058                 1.3388
 Frc consts  --      0.9091                 0.9192                 1.1332
 IR Inten    --      0.5343                 2.5385                10.3603

                     76                     77                     78
                      A                      A                      A
 Frequencies --   1204.0397              1209.6240              1228.7931
 Red. masses --      1.1536                 1.1663                 2.3925
 Frc consts  --      0.9853                 1.0055                 2.1284
 IR Inten    --      2.0657                 0.6131                 1.8527

                     79                     80                     81
                      A                      A                      A
 Frequencies --   1249.7819              1260.7297              1309.8312
 Red. masses --      2.3060                 1.8251                 1.4483
 Frc consts  --      2.1222                 1.7092                 1.4640
 IR Inten    --     54.8186               133.7131                 1.9225

                     82                     83                     84
                      A                      A                      A
 Frequencies --   1335.5755              1338.3346              1355.0558
 Red. masses --      1.8454                 1.5324                 2.8979
 Frc consts  --      1.9395                 1.6172                 3.1351
 IR Inten    --      6.0879                33.9450                 0.4370

                     85                     86                     87
                      A                      A                      A
 Frequencies --   1357.0916              1371.3585              1394.7519
 Red. masses --      3.0170                 1.2472                 1.4815
 Frc consts  --      3.2737                 1.3820                 1.6980
 IR Inten    --      7.9643                 4.1190                 2.4124

                     88                     89                     90
                      A                      A                      A
 Frequencies --   1452.9430              1471.7475              1484.4853
 Red. masses --      1.0907                 1.1089                 2.1162
 Frc consts  --      1.3566                 1.4152                 2.7476
 IR Inten    --     13.0153                10.8776                17.0950

                     91                     92                     93
                      A                      A                      A
 Frequencies --   1497.2213              1505.6623              1523.2376
 Red. masses --      2.1653                 1.0803                 2.0255
 Frc consts  --      2.8599                 1.4430                 2.7690
 IR Inten    --      6.7636                 4.0869                 9.0556

                     94                     95                     96
                      A                      A                      A
 Frequencies --   1525.8437              1542.9318              1634.4958
 Red. masses --      1.1045                 2.1992                 5.6959
 Frc consts  --      1.5151                 3.0847                 8.9656
 IR Inten    --      7.7250                20.0710                 0.5527

                     97                     98                     99
                      A                      A                      A
 Frequencies --   1637.1601              1640.5777              1658.5524
 Red. masses --      5.4200                 5.3704                 5.5644
 Frc consts  --      8.5591                 8.5163                 9.0183
 IR Inten    --      0.9759                 1.8561                12.3099

                    100                    101                    102
                      A                      A                      A
 Frequencies --   3040.9226              3053.7773              3081.8164
 Red. masses --      1.0599                 1.0651                 1.1018
 Frc consts  --      5.7744                 5.8521                 6.1652
 IR Inten    --      8.6950                66.4146                24.3390

                    103                    104                    105
                      A                      A                      A
 Frequencies --   3097.4315              3104.6258              3112.5738
 Red. masses --      1.0565                 1.0577                 1.0989
 Frc consts  --      5.9719                 6.0064                 6.2724
 IR Inten    --     27.0490                 9.8091                44.6989

                    106                    107                    108
                      A                      A                      A
 Frequencies --   3166.7144              3174.2003              3174.5623
 Red. masses --      1.1104                 1.1108                 1.0868
 Frc consts  --      6.5604                 6.5943                 6.4531
 IR Inten    --     13.2424                 7.8811                18.6971

                    109                    110                    111
                      A                      A                      A
 Frequencies --   3180.6245              3189.8094              3189.8974
 Red. masses --      1.0862                 1.0856                 1.0900
 Frc consts  --      6.4741                 6.5080                 6.5347
 IR Inten    --      0.5074                 1.2594                16.3318

                    112                    113                    114
                      A                      A                      A
 Frequencies --   3196.5530              3197.6049              3206.8193
 Red. masses --      1.0940                 1.0885                 1.0924
 Frc consts  --      6.5864                 6.5575                 6.6189
 IR Inten    --     68.9821                15.2217                34.8650

                    115                    116                    117
                      A                      A                      A
 Frequencies --   3208.2545              3214.7554              3228.3809
 Red. masses --      1.0977                 1.0964                 1.0923
 Frc consts  --      6.6572                 6.6759                 6.7075
 IR Inten    --     38.7816                36.0771                10.5022

 - Thermochemistry -
 -------------------
 Temperature   298.150 Kelvin.  Pressure   1.00000 Atm.
 Atom     1 has atomic number  8 and mass  15.99491

 Molecular mass:   348.07281 amu.
 Principal axes and moments of inertia in atomic units:
                           1         2         3
     Eigenvalues --  7942.263838352.96949**********
           X            0.75322   0.65771  -0.00888
           Y           -0.65704   0.75295   0.03709
           Z            0.03108  -0.02210   0.99927
 This molecule is an asymmetric top.
 Rotational symmetry number  1.
 Warning -- assumption of classical behavior for rotation
           may cause significant error
 Rotational temperatures (Kelvin)      0.01091     0.01037     0.00588
 Rotational constants (GHZ):           0.22723     0.21606     0.12260
 Zero-point vibrational energy     841926.7 (Joules/Mol)
                                  201.22531 (Kcal/Mol)
 Warning -- explicit consideration of  32 degrees of freedom as
           vibrations may cause significant error
 Vibrational temperatures:     20.39    26.14    36.87    61.94    68.11
          (Kelvin)             91.99   130.44   141.60   155.14   230.66
                              237.81   255.75   309.09   331.74   368.19
                              407.50   435.32   459.41   472.28   503.18
                              532.26   581.67   589.48   593.93   600.07
                              680.60   709.22   748.87   785.09   824.54
                              858.02   874.68   903.94   913.21   928.65
                             1003.15  1012.17  1025.17  1030.19  1093.53
                             1097.22  1120.50  1141.04  1185.33  1201.45
                             1235.79  1244.48  1254.23  1324.48  1337.06
                             1340.40  1385.68  1402.18  1410.18  1436.24
                             1440.04  1446.22  1457.19  1460.50  1484.14
                             1508.50  1509.76  1518.98  1524.79  1538.36
                             1564.55  1587.44  1600.60  1614.13  1632.24
                             1697.93  1705.74  1706.30  1708.97  1724.50
                             1732.34  1740.38  1767.96  1798.16  1813.91
                             1884.55  1921.60  1925.57  1949.62  1952.55
                             1973.08  2006.74  2090.46  2117.52  2135.84
                             2154.17  2166.31  2191.60  2195.35  2219.93
                             2351.67  2355.51  2360.43  2386.29  4375.21
                             4393.70  4434.05  4456.51  4466.86  4478.30
                             4556.20  4566.97  4567.49  4576.21  4589.42
                             4589.55  4599.13  4600.64  4613.90  4615.96
                             4625.32  4644.92

 Zero-point correction=                           0.320673 (Hartree/Particle)
 Thermal correction to Energy=                    0.341750
 Thermal correction to Enthalpy=                  0.342694
 Thermal correction to Gibbs Free Energy=         0.267231
 Sum of electronic and zero-point Energies=          -1735.221012
 Sum of electronic and thermal Energies=             -1735.199936
 Sum of electronic and thermal Enthalpies=           -1735.198991
 Sum of electronic and thermal Free Energies=        -1735.274455

                     E (Thermal)             CV                S
                      KCal/Mol        Cal/Mol-Kelvin    Cal/Mol-Kelvin
 Total                  214.451             81.489            158.825
 Electronic               0.000              0.000              0.000
 Translational            0.889              2.981             43.436
 Rotational               0.889              2.981             35.234
 Vibrational            212.674             75.527             80.156
 Vibration     1          0.593              1.986              7.319
 Vibration     2          0.593              1.986              6.825
 Vibration     3          0.593              1.985              6.142
 Vibration     4          0.595              1.980              5.114
 Vibration     5          0.595              1.979              4.926
 Vibration     6          0.597              1.972              4.332
 Vibration     7          0.602              1.956              3.646
 Vibration     8          0.604              1.950              3.485
 Vibration     9          0.606              1.943              3.308
 Vibration    10          0.622              1.891              2.546
 Vibration    11          0.624              1.885              2.488
 Vibration    12          0.628              1.870              2.352
 Vibration    13          0.645              1.818              2.002
 Vibration    14          0.652              1.794              1.874
 Vibration    15          0.666              1.753              1.690
 Vibration    16          0.682              1.705              1.514
 Vibration    17          0.694              1.669              1.403
 Vibration    18          0.705              1.637              1.314
 Vibration    19          0.711              1.619              1.269
 Vibration    20          0.727              1.576              1.167
 Vibration    21          0.742              1.534              1.080
 Vibration    22          0.769              1.461              0.947
 Vibration    23          0.774              1.449              0.928
 Vibration    24          0.777              1.442              0.917
 Vibration    25          0.780              1.433              0.902
 Vibration    26          0.830              1.310              0.729
 Vibration    27          0.849              1.266              0.676
 Vibration    28          0.875              1.205              0.609
 Vibration    29          0.901              1.149              0.553
 Vibration    30          0.929              1.089              0.498
 Vibration    31          0.954              1.040              0.456
 Vibration    32          0.967              1.015              0.436

                           ! Non-Optimized Parameters !
 Normal termination of Gaussian 16 at Mon Sep 21 07:29:53 2020.

 ----------------------------------------------------------------------
 #p b3lyp/6-31G(d) scrf=(iefpcm,read,solvent=water) geom=allcheck guess
 =read
 ----------------------------------------------------------------------

 Structure from the checkpoint file:  "SM36_m1.a.3.pdb.xyz.mst.a.w.chk"
 -------------------
 SM36_m1.a.3.pdb.xyz
 -------------------
 Charge = -1 Multiplicity = 1

 SCF Done:  E(RB3LYP) =  -1735.54161466     A.U. after    7 cycles
 Normal termination of Gaussian 16 at Mon Sep 21 07:31:01 2020.

 -----------------------------
 #p B3LYP/6-31G* geom=allcheck
 -----------------------------

 Structure from the checkpoint file:  "SM36_m1.a.3.pdb.xyz.mst.a.w.chk"
 -------------------
 SM36_m1.a.3.pdb.xyz
 -------------------
 Charge = -1 Multiplicity = 1

 SCF Done:  E(RB3LYP) =  -1735.36492278     A.U. after   15 cycles
 Normal termination of Gaussian 16 at Mon Sep 21 07:32:22 2020.
 Gaussian 16:  ES64L-G16RevB.01 20-Dec-2017

 ----------------------------------------------------------------------
 #p mp2/aug-cc-pVDZ scf=(MaxCycle=2000,NoVarAcc,NoIncFock) maxdisk=120G
 B geom=allcheck
 ----------------------------------------------------------------------

 Structure from the checkpoint file:  "SM36_m1.a.3.pdb.xyz.mst.a.w.chk"
 -------------------
 SM36_m1.a.3.pdb.xyz
 -------------------
 Charge = -1 Multiplicity = 1

                         Standard orientation:
 ---------------------------------------------------------------------
 Center     Atomic      Atomic             Coordinates (Angstroms)
 Number     Number       Type             X           Y           Z
 ---------------------------------------------------------------------
      1          8           0       -1.686640   -2.096666    1.512708
      2         16           0       -1.348787   -2.225921    0.059989
      3          7           0       -1.735013   -0.978945   -0.834542
      4          6           0       -1.838869    0.352700   -0.245716
      5          6           0       -2.894337    0.533866    0.897966
      6         16           0       -3.643331    2.051378    0.114717
      7          8           0       -2.956880    3.314034    0.650152
      8          6           0       -2.604688    1.284324   -1.232821
      9          6           0       -0.500227    1.001716    0.191638
     10          6           0        0.562689    1.120517   -0.918578
     11          6           0        1.791627    1.876257   -0.455476
     12          6           0        2.883219    1.204323    0.115071
     13          6           0        4.004073    1.906277    0.566277
     14          6           0        4.054468    3.298115    0.453530
     15          6           0        2.974659    3.980734   -0.113601
     16          6           0        1.856466    3.274213   -0.562251
     17          6           0        0.448923   -2.506017    0.035496
     18          6           0        1.179904   -2.530921    1.224497
     19          6           0        2.557514   -2.772165    1.187365
     20          6           0        3.199793   -2.989050   -0.033402
     21          6           0        2.462626   -2.963954   -1.223205
     22          6           0        1.089391   -2.723303   -1.191189
     23          8           0       -1.883362   -3.451280   -0.605298
     24          1           0       -2.531238    0.722718    1.910958
     25          1           0       -3.652137   -0.252083    0.907613
     26          1           0       -2.037718    2.029758   -1.795373
     27          1           0       -3.267717    0.728696   -1.901325
     28          1           0       -0.090446    0.419857    1.027550
     29          1           0       -0.717946    2.002122    0.586136
     30          1           0        0.130919    1.637272   -1.784734
     31          1           0        0.847333    0.119952   -1.257516
     32          1           0        2.856909    0.120673    0.202839
     33          1           0        4.840107    1.364667    1.001595
     34          1           0        4.927150    3.844894    0.800455
     35          1           0        3.004341    5.062984   -0.210960
     36          1           0        1.022002    3.813289   -1.006116
     37          1           0        0.669167   -2.369106    2.167389
     38          1           0        3.124908   -2.794780    2.113775
     39          1           0        4.269021   -3.179194   -0.060567
     40          1           0        2.958366   -3.134609   -2.174813
     41          1           0        0.517636   -2.706292   -2.114502
 ---------------------------------------------------------------------

 SCF Done:  E(RHF) =  -1728.32272694     A.U. after   17 cycles
 E2 =    -0.3462362605D+01 EUMP2 =    -0.17317850895431D+04

 The electronic state is 1-A.
 Alpha  occ. eigenvalues --  -92.05456 -91.95110 -20.40362 -20.39470 -20.38322
 Alpha  occ. eigenvalues --  -15.38519 -11.17351 -11.15948 -11.15947 -11.15873
 Alpha  occ. eigenvalues --  -11.15745 -11.15694 -11.15672 -11.15579 -11.15558
 Alpha  occ. eigenvalues --  -11.15361 -11.15263 -11.15067 -11.15036 -11.14799
 Alpha  occ. eigenvalues --  -11.14666 -11.12946 -11.11634  -9.02106  -8.94046
 Alpha  occ. eigenvalues --   -6.70678  -6.70578  -6.70533  -6.62276  -6.62142
 Alpha  occ. eigenvalues --   -6.62023  -1.27795  -1.20660  -1.15608  -1.07045
 Alpha  occ. eigenvalues --   -1.06459  -1.06203  -0.97638  -0.96486  -0.93021
 Alpha  occ. eigenvalues --   -0.92794  -0.92725  -0.89057  -0.82136  -0.80179
 Alpha  occ. eigenvalues --   -0.76239  -0.74031  -0.73729  -0.72680  -0.69805
 Alpha  occ. eigenvalues --   -0.67145  -0.62902  -0.60724  -0.59991  -0.56038
 Alpha  occ. eigenvalues --   -0.55154  -0.54751  -0.53930  -0.53186  -0.52463
 Alpha  occ. eigenvalues --   -0.51229  -0.50281  -0.49795  -0.49667  -0.48354
 Alpha  occ. eigenvalues --   -0.47681  -0.46636  -0.45579  -0.44364  -0.43270
 Alpha  occ. eigenvalues --   -0.42833  -0.41882  -0.41567  -0.40955  -0.40413
 Alpha  occ. eigenvalues --   -0.39862  -0.39474  -0.38410  -0.36979  -0.36166
 Alpha  occ. eigenvalues --   -0.35233  -0.33244  -0.31124  -0.29647  -0.28216
 Alpha  occ. eigenvalues --   -0.25808  -0.25080  -0.25010  -0.24640  -0.24483
 Alpha  occ. eigenvalues --   -0.23590  -0.20416
 Alpha virt. eigenvalues --    0.09121   0.09788   0.10566   0.11055   0.11782
 Alpha virt. eigenvalues --    0.12032   0.12682   0.13257   0.13790   0.14363
 Alpha virt. eigenvalues --    0.14700   0.14975   0.15405   0.16062   0.16645

 Mulliken charges:
               1
     1  O   -1.378073
     2  S    2.830424
     3  N   -1.861735
     4  C    0.663523
     5  C    0.474446
     6  S    1.402316
     7  O   -1.254769
     8  C    0.612044
     9  C   -0.136987
    10  C    1.187268
    11  C    0.322361
    12  C    0.930456
    13  C    0.016516
    14  C    0.594221
    15  C   -0.015966
    16  C    0.890950
    17  C    0.509110
    18  C    0.673216
    19  C    0.344271
    20  C    0.740073
    21  C    0.226008
    22  C    0.299463
    23  O   -1.267692
    24  H   -0.265141
    25  H   -0.254904
    26  H   -0.224847
    27  H   -0.287522
    28  H   -0.216461
    29  H   -0.195580
    30  H   -0.309301
    31  H   -0.280786
    32  H   -0.582685
    33  H   -0.521936
    34  H   -0.462792
    35  H   -0.494000
    36  H   -0.718069
    37  H   -0.681704
    38  H   -0.539239
    39  H   -0.509504
    40  H   -0.540001
    41  H   -0.716971
 Sum of Mulliken charges =  -1.00000

 Dipole moment (field-independent basis, Debye):
    X=              8.5306    Y=              2.9689    Z=             -1.3216  Tot=              9.1286
 Quadrupole moment (field-independent basis, Debye-Ang):
   XX=           -181.1204   YY=           -213.4108   ZZ=           -159.5486
   XY=             -8.1722   XZ=              6.1972   YZ=             -7.2006

 Normal termination of Gaussian 16 at Mon Sep 21 09:12:24 2020.
