 Gaussian 16, Revision B.01,

 ----------------------------------------------------------------------
 #p b3lyp/6-31G(d) opt freq NoSymm scf=(MaxCycle=2000,NoVarAcc,NoIncFoc
 k) scrf=(iefpcm,read,solvent=water)
 ----------------------------------------------------------------------

 -------------------
 SM36_m1.a.1.pdb.xyz
 -------------------
 Symbolic Z-matrix:
 Charge = -1 Multiplicity = 1

 SCF Done:  E(RB3LYP) =  -1735.52497457     A.U. after   13 cycles
 SCF Done:  E(RB3LYP) =  -1735.53510322     A.U. after   11 cycles
 SCF Done:  E(RB3LYP) =  -1735.53598131     A.U. after   11 cycles
 SCF Done:  E(RB3LYP) =  -1735.53281216     A.U. after   13 cycles
 SCF Done:  E(RB3LYP) =  -1735.53669518     A.U. after   11 cycles
 SCF Done:  E(RB3LYP) =  -1735.53703111     A.U. after   11 cycles
 SCF Done:  E(RB3LYP) =  -1735.53730370     A.U. after   11 cycles
 SCF Done:  E(RB3LYP) =  -1735.53734129     A.U. after    9 cycles
 SCF Done:  E(RB3LYP) =  -1735.53734016     A.U. after    9 cycles
 SCF Done:  E(RB3LYP) =  -1735.53734112     A.U. after    9 cycles
 SCF Done:  E(RB3LYP) =  -1735.53733945     A.U. after    9 cycles
 SCF Done:  E(RB3LYP) =  -1735.53730109     A.U. after   10 cycles
 SCF Done:  E(RB3LYP) =  -1735.53734396     A.U. after   10 cycles
 SCF Done:  E(RB3LYP) =  -1735.53734415     A.U. after    8 cycles
 SCF Done:  E(RB3LYP) =  -1735.53734415     A.U. after    7 cycles
 SCF Done:  E(RB3LYP) =  -1735.53734416     A.U. after    6 cycles
 Optimization completed.
    -- Stationary point found.
 Normal termination of Gaussian 16 at Mon Sep 21 06:48:50 2020.

 --------------------------------------------------------------------
 #P Geom=AllCheck Guess=TCheck SCRF=Check GenChk RB3LYP/6-31G(d) Freq
 --------------------------------------------------------------------

 Structure from the checkpoint file:  "SM36_m1.a.1.pdb.xyz.mst.a.w.chk"
 -------------------
 SM36_m1.a.1.pdb.xyz
 -------------------
 Charge = -1 Multiplicity = 1

 SCF Done:  E(RB3LYP) =  -1735.53734416     A.U. after    1 cycles

  Exact polarizability: 321.073 -20.389 331.257 -29.622 -50.804 258.525
 Approx polarizability: 366.860 -21.107 367.860 -34.481 -51.774 305.065

 ******    1 imaginary frequencies (negative Signs) ******

                      1                      2                      3
                      A                      A                      A
 Frequencies --    -10.2381                15.7658                27.3297
 Red. masses --      4.5402                 4.6698                 6.0345
 Frc consts  --      0.0003                 0.0007                 0.0027
 IR Inten    --      1.4679                 0.2123                 3.3833

                      4                      5                      6
                      A                      A                      A
 Frequencies --     42.5488                46.6180                57.9546
 Red. masses --      6.3832                 4.8829                 8.2255
 Frc consts  --      0.0068                 0.0063                 0.0163
 IR Inten    --      1.9998                 0.5314                11.9251

                      7                      8                      9
                      A                      A                      A
 Frequencies --     63.6979               104.9240               130.5225
 Red. masses --      3.8464                 7.0564                 6.2750
 Frc consts  --      0.0092                 0.0458                 0.0630
 IR Inten    --      0.8299                 0.3533                 2.9164

                     10                     11                     12
                      A                      A                      A
 Frequencies --    160.8693               173.1153               192.1396
 Red. masses --      5.8722                 5.5559                 4.3292
 Frc consts  --      0.0895                 0.0981                 0.0942
 IR Inten    --      5.6196                 9.1980                 8.6450

                     13                     14                     15
                      A                      A                      A
 Frequencies --    215.9782               249.0612               270.3483
 Red. masses --      5.0981                 4.1464                 8.3961
 Frc consts  --      0.1401                 0.1515                 0.3616
 IR Inten    --      3.2827                20.7660                 5.1659

                     16                     17                     18
                      A                      A                      A
 Frequencies --    279.4928               298.3512               312.9363
 Red. masses --      4.3584                 7.3389                 2.3259
 Frc consts  --      0.2006                 0.3849                 0.1342
 IR Inten    --     13.6057                 9.1230                 0.1883

                     19                     20                     21
                      A                      A                      A
 Frequencies --    340.8400               345.8593               393.5632
 Red. masses --      3.1252                 2.8121                 3.4015
 Frc consts  --      0.2139                 0.1982                 0.3104
 IR Inten    --      5.9997                 2.9938                 7.4889

                     22                     23                     24
                      A                      A                      A
 Frequencies --    408.9323               411.5289               418.2457
 Red. masses --      3.3354                 3.0881                 4.3887
 Frc consts  --      0.3286                 0.3081                 0.4523
 IR Inten    --      2.4158                 0.7382                 4.6989

                     25                     26                     27
                      A                      A                      A
 Frequencies --    420.4048               467.7494               491.3786
 Red. masses --      3.0001                 4.6719                 3.8369
 Frc consts  --      0.3124                 0.6022                 0.5458
 IR Inten    --      0.0679                17.0151                 4.4707

                     28                     29                     30
                      A                      A                      A
 Frequencies --    514.8184               551.5133               572.2392
 Red. masses --      3.8766                 8.2819                 3.1282
 Frc consts  --      0.6054                 1.4842                 0.6035
 IR Inten    --     17.2259               117.3705                 9.1290

                     31                     32                     33
                      A                      A                      A
 Frequencies --    576.3154               592.3649               628.2797
 Red. masses --      6.8098                 6.1128                 6.4311
 Frc consts  --      1.3326                 1.2638                 1.4957
 IR Inten    --     97.0358               179.8121                 0.2366

                     34                     35                     36
                      A                      A                      A
 Frequencies --    634.0836               635.6263               681.7783
 Red. masses --      6.2354                 4.7063                 5.2955
 Frc consts  --      1.4771                 1.1203                 1.4503
 IR Inten    --      3.5265                24.0637                33.4656

                     37                     38                     39
                      A                      A                      A
 Frequencies --    702.4093               710.1636               714.4650
 Red. masses --      2.5032                 5.6366                 2.6410
 Frc consts  --      0.7276                 1.6749                 0.7943
 IR Inten    --     52.7721                50.7087                13.4214

                     40                     41                     42
                      A                      A                      A
 Frequencies --    732.7993               763.1323               765.7545
 Red. masses --      2.0033                 1.6340                 1.7575
 Frc consts  --      0.6338                 0.5607                 0.6072
 IR Inten    --     32.1078                78.9750                29.3984

                     43                     44                     45
                      A                      A                      A
 Frequencies --    787.2719               818.0970               837.0101
 Red. masses --      3.8431                 1.6938                 3.3084
 Frc consts  --      1.4034                 0.6679                 1.3656
 IR Inten    --      6.3181                 9.1352                88.6185

                     46                     47                     48
                      A                      A                      A
 Frequencies --    861.5692               866.8862               880.1655
 Red. masses --      1.2497                 1.2458                 2.5802
 Frc consts  --      0.5466                 0.5516                 1.1777
 IR Inten    --      0.8646                 0.1047                11.6155

                     49                     50                     51
                      A                      A                      A
 Frequencies --    914.7665               936.4738               941.6733
 Red. masses --      1.4995                 1.3268                 1.9061
 Frc consts  --      0.7393                 0.6855                 0.9958
 IR Inten    --      6.1581                 1.5797                33.4514

                     52                     53                     54
                      A                      A                      A
 Frequencies --    968.4099               977.8802               983.3025
 Red. masses --      2.5346                 1.3634                 1.3527
 Frc consts  --      1.4005                 0.7682                 0.7706
 IR Inten    --    165.1732                 2.6645                 1.7243

                     55                     56                     57
                      A                      A                      A
 Frequencies --    997.5615              1001.6729              1007.4279
 Red. masses --      2.5510                 1.5371                 1.2558
 Frc consts  --      1.4957                 0.9087                 0.7510
 IR Inten    --     52.4614                16.1545                 0.5927

                     58                     59                     60
                      A                      A                      A
 Frequencies --   1014.2014              1015.5835              1025.5594
 Red. masses --      6.0509                 5.5193                 4.5456
 Frc consts  --      3.6671                 3.3540                 2.8169
 IR Inten    --      4.6223                 6.6132               110.4353

                     61                     62                     63
                      A                      A                      A
 Frequencies --   1048.6581              1050.5086              1054.3980
 Red. masses --      2.7991                 1.2877                 2.8758
 Frc consts  --      1.8136                 0.8373                 1.8837
 IR Inten    --     36.5404                20.4992               149.2174

                     64                     65                     66
                      A                      A                      A
 Frequencies --   1061.7028              1069.2685              1080.5667
 Red. masses --      2.7787                 2.9945                 1.9098
 Frc consts  --      1.8455                 2.0172                 1.3138
 IR Inten    --    212.2556                48.2453                20.0407

                     67                     68                     69
                      A                      A                      A
 Frequencies --   1106.0767              1113.4487              1121.2573
 Red. masses --      1.6566                 2.9971                 1.8406
 Frc consts  --      1.1941                 2.1892                 1.3634
 IR Inten    --     28.0697                94.9503                 6.6614

                     70                     71                     72
                      A                      A                      A
 Frequencies --   1140.2874              1174.8154              1185.9595
 Red. masses --      3.8316                13.8444                 1.0933
 Frc consts  --      2.9353                11.2581                 0.9060
 IR Inten    --    380.5427               487.8956                 0.2779

                     73                     74                     75
                      A                      A                      A
 Frequencies --   1187.5633              1196.5808              1207.1480
 Red. masses --      1.1021                 1.2770                 1.1520
 Frc consts  --      0.9158                 1.0773                 0.9891
 IR Inten    --      0.8731                 4.5171                 2.1416

                     76                     77                     78
                      A                      A                      A
 Frequencies --   1209.9289              1218.7685              1223.7123
 Red. masses --      1.1881                 1.3664                 2.2930
 Frc consts  --      1.0248                 1.1958                 2.0231
 IR Inten    --      0.7405                24.3877                 1.3322

                     79                     80                     81
                      A                      A                      A
 Frequencies --   1247.6743              1262.9948              1323.6399
 Red. masses --      1.3920                 1.9466                 1.3390
 Frc consts  --      1.2767                 1.8295                 1.3822
 IR Inten    --     35.5507                52.5138                78.6927

                     82                     83                     84
                      A                      A                      A
 Frequencies --   1338.2892              1344.5216              1357.0580
 Red. masses --      2.0824                 2.8379                 2.4916
 Frc consts  --      2.1974                 3.0226                 2.7035
 IR Inten    --      3.8356                 2.0324                 1.5385

                     85                     86                     87
                      A                      A                      A
 Frequencies --   1363.6708              1401.2618              1407.4928
 Red. masses --      1.6840                 1.3518                 1.3919
 Frc consts  --      1.8451                 1.5638                 1.6247
 IR Inten    --      0.3314                 1.4459                 2.5691

                     88                     89                     90
                      A                      A                      A
 Frequencies --   1448.7196              1469.6320              1485.1078
 Red. masses --      1.0920                 1.1108                 2.1221
 Frc consts  --      1.3503                 1.4136                 2.7576
 IR Inten    --     20.1600                 9.9940                17.8890

                     91                     92                     93
                      A                      A                      A
 Frequencies --   1494.1176              1503.1335              1508.6777
 Red. masses --      1.6766                 1.2751                 1.0841
 Frc consts  --      2.2052                 1.6974                 1.4539
 IR Inten    --      2.0778                10.6564                 4.6291

                     94                     95                     96
                      A                      A                      A
 Frequencies --   1525.4869              1543.2878              1635.3221
 Red. masses --      2.0289                 2.1784                 5.6883
 Frc consts  --      2.7818                 3.0569                 8.9627
 IR Inten    --      7.1138                22.6241                 0.1417

                     97                     98                     99
                      A                      A                      A
 Frequencies --   1636.4428              1641.6482              1657.6335
 Red. masses --      5.3809                 5.3369                 5.5523
 Frc consts  --      8.4901                 8.4741                 8.9887
 IR Inten    --      1.9492                 0.5863                16.8100

                    100                    101                    102
                      A                      A                      A
 Frequencies --   3026.7096              3053.3230              3075.6165
 Red. masses --      1.0671                 1.0628                 1.0939
 Frc consts  --      5.7595                 5.8377                 6.0967
 IR Inten    --     47.1064                22.9964                57.1495

                    103                    104                    105
                      A                      A                      A
 Frequencies --   3097.8170              3099.6751              3105.2312
 Red. masses --      1.0920                 1.0672                 1.0591
 Frc consts  --      6.1741                 6.0415                 6.0170
 IR Inten    --     37.9060                27.2064                13.2747

                    106                    107                    108
                      A                      A                      A
 Frequencies --   3171.7282              3177.0267              3179.3366
 Red. masses --      1.1092                 1.0854                 1.0871
 Frc consts  --      6.5745                 6.4549                 6.4744
 IR Inten    --      7.0038                17.7981                 6.2006

                    109                    110                    111
                      A                      A                      A
 Frequencies --   3184.0247              3189.8557              3190.3480
 Red. masses --      1.1079                 1.0896                 1.0860
 Frc consts  --      6.6177                 6.5324                 6.5126
 IR Inten    --      2.7253                16.5850                 1.8763

                    112                    113                    114
                      A                      A                      A
 Frequencies --   3195.9630              3198.6211              3208.6023
 Red. masses --      1.0941                 1.0893                 1.0975
 Frc consts  --      6.5842                 6.5666                 6.6573
 IR Inten    --     85.8846                30.7119                29.6148

                    115                    116                    117
                      A                      A                      A
 Frequencies --   3209.6993              3217.1847              3229.0368
 Red. masses --      1.0935                 1.0949                 1.0921
 Frc consts  --      6.6372                 6.6766                 6.7093
 IR Inten    --     31.8899                23.7524                11.7350

 - Thermochemistry -
 -------------------
 Temperature   298.150 Kelvin.  Pressure   1.00000 Atm.
 Atom     1 has atomic number  8 and mass  15.99491

 Molecular mass:   348.07281 amu.
 Principal axes and moments of inertia in atomic units:
                           1         2         3
     Eigenvalues --  7580.872688792.56253**********
           X            0.99385  -0.11051   0.00735
           Y            0.11060   0.99378  -0.01329
           Z           -0.00584   0.01402   0.99988
 This molecule is an asymmetric top.
 Rotational symmetry number  1.
 Warning -- assumption of classical behavior for rotation
           may cause significant error
 Rotational temperatures (Kelvin)      0.01143     0.00985     0.00667
 Rotational constants (GHZ):           0.23807     0.20526     0.13908
    1 imaginary frequencies ignored.
 Zero-point vibrational energy     842216.9 (Joules/Mol)
                                  201.29467 (Kcal/Mol)
 Warning -- explicit consideration of  31 degrees of freedom as
           vibrations may cause significant error
 Vibrational temperatures:     22.68    39.32    61.22    67.07    83.38
          (Kelvin)             91.65   150.96   187.79   231.46   249.07
                              276.45   310.74   358.34   388.97   402.13
                              429.26   450.25   490.39   497.61   566.25
                              588.36   592.10   601.76   604.87   672.99
                              706.98   740.71   793.50   823.32   829.19
                              852.28   903.95   912.30   914.52   980.93
                             1010.61  1021.77  1027.96  1054.33  1097.98
                             1101.75  1132.71  1177.06  1204.27  1239.61
                             1247.26  1266.36  1316.14  1347.38  1354.86
                             1393.33  1406.95  1414.75  1435.27  1441.18
                             1449.46  1459.21  1461.20  1475.55  1508.79
                             1511.45  1517.04  1527.55  1538.44  1554.69
                             1591.40  1602.00  1613.24  1640.62  1690.30
                             1706.33  1708.64  1721.61  1736.82  1740.82
                             1753.54  1760.65  1795.13  1817.17  1904.42
                             1925.50  1934.47  1952.50  1962.02  2016.10
                             2025.07  2084.38  2114.47  2136.74  2149.70
                             2162.67  2170.65  2194.84  2220.45  2352.86
                             2354.48  2361.97  2384.96  4354.76  4393.05
                             4425.13  4457.07  4459.74  4467.74  4563.41
                             4571.03  4574.36  4581.10  4589.49  4590.20
                             4598.28  4602.10  4616.46  4618.04  4628.81
                             4645.86

 Zero-point correction=                           0.320783 (Hartree/Particle)
 Thermal correction to Energy=                    0.340893
 Thermal correction to Enthalpy=                  0.341837
 Thermal correction to Gibbs Free Energy=         0.269836
 Sum of electronic and zero-point Energies=          -1735.216561
 Sum of electronic and thermal Energies=             -1735.196451
 Sum of electronic and thermal Enthalpies=           -1735.195507
 Sum of electronic and thermal Free Energies=        -1735.267508

                     E (Thermal)             CV                S
                      KCal/Mol        Cal/Mol-Kelvin    Cal/Mol-Kelvin
 Total                  213.914             79.491            151.538
 Electronic               0.000              0.000              0.000
 Translational            0.889              2.981             43.436
 Rotational               0.889              2.981             35.113
 Vibrational            212.136             73.529             72.990
 Vibration     1          0.593              1.986              7.107
 Vibration     2          0.593              1.984              6.014
 Vibration     3          0.595              1.980              5.137
 Vibration     4          0.595              1.979              4.956
 Vibration     5          0.596              1.974              4.526
 Vibration     6          0.597              1.972              4.339
 Vibration     7          0.605              1.945              3.361
 Vibration     8          0.612              1.923              2.938
 Vibration     9          0.622              1.890              2.540
 Vibration    10          0.627              1.876              2.401
 Vibration    11          0.634              1.851              2.207
 Vibration    12          0.645              1.817              1.993
 Vibration    13          0.662              1.764              1.737
 Vibration    14          0.674              1.728              1.594
 Vibration    15          0.680              1.711              1.537
 Vibration    16          0.691              1.677              1.426
 Vibration    17          0.701              1.649              1.347
 Vibration    18          0.720              1.594              1.208
 Vibration    19          0.724              1.584              1.185
 Vibration    20          0.761              1.484              0.987
 Vibration    21          0.773              1.451              0.930
 Vibration    22          0.776              1.445              0.921
 Vibration    23          0.781              1.431              0.898
 Vibration    24          0.783              1.426              0.891
 Vibration    25          0.825              1.322              0.744
 Vibration    26          0.847              1.269              0.680
 Vibration    27          0.870              1.217              0.622
 Vibration    28          0.907              1.136              0.541
 Vibration    29          0.928              1.091              0.500
 Vibration    30          0.933              1.082              0.492
 Vibration    31          0.950              1.048              0.463

                           ! Non-Optimized Parameters !
 Normal termination of Gaussian 16 at Mon Sep 21 07:13:11 2020.

 ----------------------------------------------------------------------
 #p b3lyp/6-31G(d) scrf=(iefpcm,read,solvent=water) geom=allcheck guess
 =read
 ----------------------------------------------------------------------

 Structure from the checkpoint file:  "SM36_m1.a.1.pdb.xyz.mst.a.w.chk"
 -------------------
 SM36_m1.a.1.pdb.xyz
 -------------------
 Charge = -1 Multiplicity = 1

 SCF Done:  E(RB3LYP) =  -1735.53738916     A.U. after    7 cycles
 Normal termination of Gaussian 16 at Mon Sep 21 07:14:19 2020.

 -----------------------------
 #p B3LYP/6-31G* geom=allcheck
 -----------------------------

 Structure from the checkpoint file:  "SM36_m1.a.1.pdb.xyz.mst.a.w.chk"
 -------------------
 SM36_m1.a.1.pdb.xyz
 -------------------
 Charge = -1 Multiplicity = 1

 SCF Done:  E(RB3LYP) =  -1735.35922843     A.U. after   16 cycles
 Normal termination of Gaussian 16 at Mon Sep 21 07:15:48 2020.
 Gaussian 16:  ES64L-G16RevB.01 20-Dec-2017

 ----------------------------------------------------------------------
 #p mp2/aug-cc-pVDZ scf=(MaxCycle=2000,NoVarAcc,NoIncFock) maxdisk=120G
 B geom=allcheck
 ----------------------------------------------------------------------

 Structure from the checkpoint file:  "SM36_m1.a.1.pdb.xyz.mst.a.w.chk"
 -------------------
 SM36_m1.a.1.pdb.xyz
 -------------------
 Charge = -1 Multiplicity = 1

                         Standard orientation:
 ---------------------------------------------------------------------
 Center     Atomic      Atomic             Coordinates (Angstroms)
 Number     Number       Type             X           Y           Z
 ---------------------------------------------------------------------
      1          8           0        0.321211    1.444010    2.619308
      2         16           0        1.011611    0.694533    1.529149
      3          7           0       -0.002342   -0.382316    0.963341
      4          6           0        0.454637   -1.531300    0.197024
      5          6           0        1.367209   -2.562675    0.944898
      6         16           0        2.425590   -2.872582   -0.561735
      7          8           0        1.876082   -4.059484   -1.364109
      8          6           0        1.475291   -1.320446   -0.975921
      9          6           0       -0.792787   -2.294471   -0.313330
     10          6           0       -1.734830   -1.543798   -1.281561
     11          6           0       -2.825159   -0.683139   -0.666925
     12          6           0       -3.013403    0.642081   -1.085668
     13          6           0       -4.048666    1.426636   -0.568860
     14          6           0       -4.923420    0.895457    0.381298
     15          6           0       -4.754964   -0.427021    0.802008
     16          6           0       -3.720093   -1.205906    0.280337
     17          6           0        1.324339    1.960797    0.260126
     18          6           0        0.240056    2.551691   -0.398457
     19          6           0        0.466625    3.549670   -1.346464
     20          6           0        1.772544    3.957433   -1.640032
     21          6           0        2.851204    3.365781   -0.979873
     22          6           0        2.629539    2.368199   -0.025422
     23          8           0        2.376519    0.189091    1.887969
     24          1           0        0.894096   -3.473515    1.323182
     25          1           0        1.996772   -2.099597    1.705300
     26          1           0        1.093951   -1.320476   -2.000244
     27          1           0        2.153694   -0.476973   -0.833978
     28          1           0       -1.352678   -2.633821    0.567056
     29          1           0       -0.432504   -3.197822   -0.817508
     30          1           0       -2.225920   -2.303652   -1.905724
     31          1           0       -1.145686   -0.931617   -1.974992
     32          1           0       -2.340872    1.064450   -1.828722
     33          1           0       -4.169982    2.451474   -0.910362
     34          1           0       -5.728729    1.501998    0.786655
     35          1           0       -5.433507   -0.855318    1.535388
     36          1           0       -3.612137   -2.235821    0.612262
     37          1           0       -0.772398    2.229396   -0.176280
     38          1           0       -0.375145    4.008198   -1.858033
     39          1           0        1.946350    4.732466   -2.381188
     40          1           0        3.866969    3.679550   -1.204186
     41          1           0        3.459672    1.903191    0.494971
 ---------------------------------------------------------------------

 SCF Done:  E(RHF) =  -1728.31401551     A.U. after   16 cycles
 E2 =    -0.3463757542D+01 EUMP2 =    -0.17317777730519D+04

 The electronic state is 1-A.
 Alpha  occ. eigenvalues --  -92.05355 -91.94954 -20.40194 -20.39490 -20.38207
 Alpha  occ. eigenvalues --  -15.38325 -11.17397 -11.15869 -11.15618 -11.15474
 Alpha  occ. eigenvalues --  -11.15450 -11.15360 -11.15256 -11.15232 -11.15067
 Alpha  occ. eigenvalues --  -11.15007 -11.14978 -11.14863 -11.14358 -11.14345
 Alpha  occ. eigenvalues --  -11.14175 -11.13687 -11.11969  -9.02017  -8.93861
 Alpha  occ. eigenvalues --   -6.70585  -6.70486  -6.70444  -6.62090  -6.61954
 Alpha  occ. eigenvalues --   -6.61834  -1.27717  -1.20453  -1.15517  -1.06790
 Alpha  occ. eigenvalues --   -1.06211  -1.05763  -0.97472  -0.95990  -0.92966
 Alpha  occ. eigenvalues --   -0.92645  -0.92142  -0.88976  -0.82241  -0.80209
 Alpha  occ. eigenvalues --   -0.75919  -0.73685  -0.73531  -0.72359  -0.69114
 Alpha  occ. eigenvalues --   -0.67587  -0.62816  -0.60225  -0.60059  -0.56131
 Alpha  occ. eigenvalues --   -0.54850  -0.54180  -0.53889  -0.52697  -0.52143
 Alpha  occ. eigenvalues --   -0.51553  -0.49850  -0.49449  -0.48983  -0.48718
 Alpha  occ. eigenvalues --   -0.47625  -0.46589  -0.45258  -0.44623  -0.42841
 Alpha  occ. eigenvalues --   -0.42698  -0.41671  -0.41335  -0.40834  -0.40444
 Alpha  occ. eigenvalues --   -0.39669  -0.39334  -0.37607  -0.36801  -0.36354
 Alpha  occ. eigenvalues --   -0.34773  -0.33009  -0.31256  -0.29371  -0.28410
 Alpha  occ. eigenvalues --   -0.26919  -0.24861  -0.24645  -0.24219  -0.23563
 Alpha  occ. eigenvalues --   -0.21818  -0.20747
 Alpha virt. eigenvalues --    0.09501   0.10007   0.10619   0.11092   0.11544
 Alpha virt. eigenvalues --    0.12125   0.12552   0.13255   0.13747   0.14284
 Alpha virt. eigenvalues --    0.14489   0.14691   0.15618   0.16188   0.16862

 Mulliken charges:
               1
     1  O   -1.287584
     2  S    2.823916
     3  N   -1.763697
     4  C    0.523474
     5  C    0.409656
     6  S    1.458562
     7  O   -1.297720
     8  C    0.468728
     9  C    0.619984
    10  C    0.152239
    11  C    0.810373
    12  C    0.853798
    13  C    0.092586
    14  C    0.642240
    15  C    0.174538
    16  C    0.657352
    17  C    0.337757
    18  C    0.519923
    19  C    0.241165
    20  C    0.643703
    21  C    0.321147
    22  C    0.620564
    23  O   -1.369913
    24  H   -0.304853
    25  H   -0.244619
    26  H   -0.340019
    27  H   -0.262046
    28  H   -0.242897
    29  H   -0.084772
    30  H   -0.077950
    31  H   -0.341357
    32  H   -0.689887
    33  H   -0.535361
    34  H   -0.488365
    35  H   -0.525607
    36  H   -0.721904
    37  H   -0.614072
    38  H   -0.554828
    39  H   -0.479783
    40  H   -0.494880
    41  H   -0.649591
 Sum of Mulliken charges =  -1.00000

 Dipole moment (field-independent basis, Debye):
    X=             -3.4155    Y=              3.3171    Z=             -5.3720  Tot=              7.1783
 Quadrupole moment (field-independent basis, Debye-Ang):
   XX=           -175.1379   YY=           -188.5614   ZZ=           -181.1718
   XY=             11.6353   XZ=             -5.3257   YZ=            -25.7958

 Normal termination of Gaussian 16 at Mon Sep 21 08:56:42 2020.
