 Gaussian 16, Revision B.01,

 ----------------------------------------------------------------------
 #p b3lyp/6-31G(d) opt freq NoSymm scf=(MaxCycle=2000,NoVarAcc,NoIncFoc
 k) scrf=(iefpcm,read,solvent=water)
 ----------------------------------------------------------------------

 --------------------
 SM36_m0.n.15.pdb.xyz
 --------------------
 Symbolic Z-matrix:
 Charge =  0 Multiplicity = 1

 SCF Done:  E(RB3LYP) =  -1735.93870157     A.U. after   13 cycles
 SCF Done:  E(RB3LYP) =  -1735.93871244     A.U. after   10 cycles
 SCF Done:  E(RB3LYP) =  -1735.93867285     A.U. after   10 cycles
 SCF Done:  E(RB3LYP) =  -1735.93867813     A.U. after    9 cycles
 SCF Done:  E(RB3LYP) =  -1735.93871188     A.U. after   10 cycles
 SCF Done:  E(RB3LYP) =  -1735.93871399     A.U. after    8 cycles
 SCF Done:  E(RB3LYP) =  -1735.93870691     A.U. after   10 cycles
 SCF Done:  E(RB3LYP) =  -1735.93867798     A.U. after    9 cycles
 SCF Done:  E(RB3LYP) =  -1735.93871142     A.U. after   10 cycles
 SCF Done:  E(RB3LYP) =  -1735.93871367     A.U. after    8 cycles
 SCF Done:  E(RB3LYP) =  -1735.93868604     A.U. after   10 cycles
 SCF Done:  E(RB3LYP) =  -1735.93871230     A.U. after   10 cycles
 SCF Done:  E(RB3LYP) =  -1735.93871359     A.U. after    8 cycles
 Optimization completed.
    -- Stationary point found.
 Normal termination of Gaussian 16 at Mon Sep 21 18:56:54 2020.

 --------------------------------------------------------------------
 #P Geom=AllCheck Guess=TCheck SCRF=Check GenChk RB3LYP/6-31G(d) Freq
 --------------------------------------------------------------------

 Structure from the checkpoint file:  "SM36_m0.n.15.pdb.xyz.mst.n.w.chk"
 --------------------
 SM36_m0.n.15.pdb.xyz
 --------------------
 Charge =  0 Multiplicity = 1

 SCF Done:  E(RB3LYP) =  -1735.93871359     A.U. after    1 cycles

  Exact polarizability: 339.179 -44.302 245.859 -28.125 -34.304 292.926
 Approx polarizability: 361.821 -47.203 286.031 -24.507 -40.799 356.908

 ******    2 imaginary frequencies (negative Signs) ******

                      1                      2                      3
                      A                      A                      A
 Frequencies --    -11.8976                -3.2694                13.8366
 Red. masses --      3.8749                 4.2577                 5.0753
 Frc consts  --      0.0003                 0.0000                 0.0006
 IR Inten    --      0.3997                 0.4681                 0.6456

                      4                      5                      6
                      A                      A                      A
 Frequencies --     23.6496                32.9953                43.8148
 Red. masses --      5.7110                 8.5209                 4.9153
 Frc consts  --      0.0019                 0.0055                 0.0056
 IR Inten    --      1.5280                 6.1877                 2.3612

                      7                      8                      9
                      A                      A                      A
 Frequencies --     59.1180                96.2100               122.7290
 Red. masses --      5.8148                 4.7514                 5.5774
 Frc consts  --      0.0120                 0.0259                 0.0495
 IR Inten    --      3.5059                 5.3250                 2.3196

                     10                     11                     12
                      A                      A                      A
 Frequencies --    150.3536               159.4048               188.7789
 Red. masses --      3.9637                 4.5051                 4.9121
 Frc consts  --      0.0528                 0.0674                 0.1031
 IR Inten    --      3.9724                 0.8872                 8.2084

                     13                     14                     15
                      A                      A                      A
 Frequencies --    210.5858               230.2346               250.0442
 Red. masses --      5.2239                 6.7163                 8.6701
 Frc consts  --      0.1365                 0.2098                 0.3194
 IR Inten    --      4.3897                14.1176                 4.4211

                     16                     17                     18
                      A                      A                      A
 Frequencies --    286.7073               294.3440               304.8751
 Red. masses --      4.7633                 2.4018                 6.3644
 Frc consts  --      0.2307                 0.1226                 0.3485
 IR Inten    --      2.4126                 0.0518                10.6595

                     19                     20                     21
                      A                      A                      A
 Frequencies --    322.1308               348.0941               364.5902
 Red. masses --      3.2875                 2.6011                 3.8194
 Frc consts  --      0.2010                 0.1857                 0.2991
 IR Inten    --     18.4823                 5.9642                 6.0087

                     22                     23                     24
                      A                      A                      A
 Frequencies --    376.3574               405.5791               410.6904
 Red. masses --      3.2084                 5.3695                 3.1263
 Frc consts  --      0.2678                 0.5204                 0.3107
 IR Inten    --      1.3109                 1.4596                 1.4652

                     25                     26                     27
                      A                      A                      A
 Frequencies --    417.5550               450.8127               479.3292
 Red. masses --      2.9932                 2.3640                 4.4390
 Frc consts  --      0.3075                 0.2831                 0.6009
 IR Inten    --      0.0794                28.3059                14.7305

                     28                     29                     30
                      A                      A                      A
 Frequencies --    501.9393               521.3233               546.5309
 Red. masses --      3.0365                 3.1827                 5.0686
 Frc consts  --      0.4507                 0.5096                 0.8920
 IR Inten    --     64.2396                46.9498                91.1186

                     31                     32                     33
                      A                      A                      A
 Frequencies --    566.6613               588.6227               608.9723
 Red. masses --      6.1475                 4.8754                 3.2650
 Frc consts  --      1.1630                 0.9953                 0.7134
 IR Inten    --    192.5770                81.4992                53.8040

                     34                     35                     36
                      A                      A                      A
 Frequencies --    625.1918               634.7088               657.2955
 Red. masses --      6.3908                 6.3252                 4.3678
 Frc consts  --      1.4717                 1.5013                 1.1118
 IR Inten    --      0.5891                 0.2363                19.7623

                     37                     38                     39
                      A                      A                      A
 Frequencies --    696.3130               710.9422               715.2049
 Red. masses --      2.4584                 3.2226                 5.7184
 Frc consts  --      0.7023                 0.9597                 1.7234
 IR Inten    --     44.5044                 5.3865                14.1380

                     40                     41                     42
                      A                      A                      A
 Frequencies --    719.6208               766.4850               769.4505
 Red. masses --      1.9439                 1.4630                 1.3707
 Frc consts  --      0.5931                 0.5064                 0.4781
 IR Inten    --     27.4679                44.0251                12.9402

                     43                     44                     45
                      A                      A                      A
 Frequencies --    773.2373               802.0204               809.6808
 Red. masses --      1.7800                 2.2027                 2.9281
 Frc consts  --      0.6271                 0.8348                 1.1310
 IR Inten    --     43.9977                44.8846                12.5452

                     46                     47                     48
                      A                      A                      A
 Frequencies --    840.5205               860.5489               864.0143
 Red. masses --      3.3791                 1.2786                 2.5020
 Frc consts  --      1.4065                 0.5579                 1.1005
 IR Inten    --      8.9345                 6.7302               115.8672

                     49                     50                     51
                      A                      A                      A
 Frequencies --    866.8017               905.7845               932.5020
 Red. masses --      1.2585                 3.0266                 1.4325
 Frc consts  --      0.5571                 1.4630                 0.7339
 IR Inten    --      1.8690               210.2129                 5.3094

                     52                     53                     54
                      A                      A                      A
 Frequencies --    947.6967               967.4943               978.2753
 Red. masses --      1.3151                 1.9135                 1.3553
 Frc consts  --      0.6959                 1.0553                 0.7642
 IR Inten    --      1.8608                 9.8804                 0.1907

                     55                     56                     57
                      A                      A                      A
 Frequencies --    989.6136               998.3992              1005.7036
 Red. masses --      1.3549                 2.2023                 1.2521
 Frc consts  --      0.7818                 1.2934                 0.7462
 IR Inten    --      0.3997                57.5951                 0.1558

                     58                     59                     60
                      A                      A                      A
 Frequencies --   1014.0942              1016.1650              1019.9600
 Red. masses --      6.1626                 6.2287                 1.2797
 Frc consts  --      3.7340                 3.7895                 0.7844
 IR Inten    --      4.0316                 0.6262                 0.1144

                     61                     62                     63
                      A                      A                      A
 Frequencies --   1042.8900              1048.5323              1054.6705
 Red. masses --      4.0828                 2.9890                 2.2140
 Frc consts  --      2.6163                 1.9361                 1.4510
 IR Inten    --     81.8896                24.0756                12.4040

                     64                     65                     66
                      A                      A                      A
 Frequencies --   1066.2965              1073.1626              1078.2309
 Red. masses --      2.7970                 1.2541                 3.9596
 Frc consts  --      1.8737                 0.8510                 2.7122
 IR Inten    --    235.1273                47.6034                67.8005

                     67                     68                     69
                      A                      A                      A
 Frequencies --   1081.5815              1107.2466              1122.1243
 Red. masses --      1.7996                 1.5630                 2.5782
 Frc consts  --      1.2403                 1.1290                 1.9127
 IR Inten    --     17.8914                13.2675                99.5471

                     70                     71                     72
                      A                      A                      A
 Frequencies --   1129.0789              1138.0951              1184.1196
 Red. masses --      2.9383                 2.0857                 1.0928
 Frc consts  --      2.2070                 1.5917                 0.9027
 IR Inten    --    126.4171                12.7137                 0.0908

                     73                     74                     75
                      A                      A                      A
 Frequencies --   1187.7220              1200.3418              1201.7422
 Red. masses --      1.0898                 1.1947                 1.2537
 Frc consts  --      0.9058                 1.0142                 1.0668
 IR Inten    --      0.3652                 0.8645                 3.6174

                     76                     77                     78
                      A                      A                      A
 Frequencies --   1202.2013              1229.9689              1235.0547
 Red. masses --      1.1348                 1.6253                 2.5561
 Frc consts  --      0.9663                 1.4486                 2.2972
 IR Inten    --      0.4903                61.5151                 3.0403

                     79                     80                     81
                      A                      A                      A
 Frequencies --   1244.0699              1252.3421              1271.4688
 Red. masses --      1.4832                 2.1150                 7.3476
 Frc consts  --      1.3525                 1.9543                 6.9985
 IR Inten    --     13.1619                39.7311               301.4061

                     82                     83                     84
                      A                      A                      A
 Frequencies --   1322.8801              1333.7499              1341.4428
 Red. masses --      1.5132                 1.3922                 1.4457
 Frc consts  --      1.5603                 1.4591                 1.5327
 IR Inten    --     40.0877                 8.4766                 2.0364

                     85                     86                     87
                      A                      A                      A
 Frequencies --   1360.4262              1364.6020              1365.8494
 Red. masses --      2.8692                 4.2116                 1.4941
 Frc consts  --      3.1287                 4.6207                 1.6422
 IR Inten    --      0.1265                 5.2580                 1.2334

                     88                     89                     90
                      A                      A                      A
 Frequencies --   1397.9405              1430.7175              1458.3546
 Red. masses --      1.5070                 1.2783                 1.0934
 Frc consts  --      1.7351                 1.5416                 1.3701
 IR Inten    --     18.6245                57.7095                29.2747

                     91                     92                     93
                      A                      A                      A
 Frequencies --   1470.3059              1487.6722              1490.8523
 Red. masses --      1.1175                 1.0985                 2.1880
 Frc consts  --      1.4233                 1.4324                 2.8653
 IR Inten    --      4.7542                 2.7772                22.4982

                     94                     95                     96
                      A                      A                      A
 Frequencies --   1498.1483              1512.2881              1523.0162
 Red. masses --      2.1354                 1.0949                 2.0725
 Frc consts  --      2.8239                 1.4754                 2.8324
 IR Inten    --      3.3761                 6.6062                 4.2331

                     97                     98                     99
                      A                      A                      A
 Frequencies --   1542.4011              1641.7257              1643.5004
 Red. masses --      2.2666                 5.5219                 5.6063
 Frc consts  --      3.1770                 8.7688                 8.9220
 IR Inten    --     21.0048                 1.6791                 2.6640

                    100                    101                    102
                      A                      A                      A
 Frequencies --   1644.6942              1661.3419              3060.9712
 Red. masses --      5.8484                 5.7348                 1.0644
 Frc consts  --      9.3208                 9.3259                 5.8761
 IR Inten    --      0.5053                11.5226                14.6108

                    103                    104                    105
                      A                      A                      A
 Frequencies --   3072.5028              3108.9574              3128.5047
 Red. masses --      1.0600                 1.1004                 1.0600
 Frc consts  --      5.8955                 6.2665                 6.1128
 IR Inten    --     61.2065                14.9598                 3.7108

                    106                    107                    108
                      A                      A                      A
 Frequencies --   3131.6968              3132.3741              3189.0380
 Red. masses --      1.0773                 1.0780                 1.0866
 Frc consts  --      6.2250                 6.2318                 6.5108
 IR Inten    --     17.1032                26.4109                15.5753

                    109                    110                    111
                      A                      A                      A
 Frequencies --   3190.4541              3198.4904              3200.3133
 Red. masses --      1.0876                 1.1107                 1.1102
 Frc consts  --      6.5229                 6.6950                 6.6992
 IR Inten    --     15.2397                 3.0267                 0.3878

                    112                    113                    114
                      A                      A                      A
 Frequencies --   3201.6847              3210.0948              3214.3706
 Red. masses --      1.0896                 1.0937                 1.0866
 Frc consts  --      6.5807                 6.6405                 6.6150
 IR Inten    --     14.5313                73.6176                 0.7667

                    115                    116                    117
                      A                      A                      A
 Frequencies --   3221.8551              3224.0442              3231.8222
 Red. masses --      1.0977                 1.0897                 1.0937
 Frc consts  --      6.7136                 6.6734                 6.7306
 IR Inten    --     34.5084                16.3386                24.1911

                    118                    119                    120
                      A                      A                      A
 Frequencies --   3240.7572              3249.6214              3504.2056
 Red. masses --      1.0955                 1.0933                 1.0757
 Frc consts  --      6.7791                 6.8022                 7.7826
 IR Inten    --     12.2789                 6.0504               137.2087

 - Thermochemistry -
 -------------------
 Temperature   298.150 Kelvin.  Pressure   1.00000 Atm.
 Atom     1 has atomic number  8 and mass  15.99491

 Molecular mass:   349.08064 amu.
 Principal axes and moments of inertia in atomic units:
                           1         2         3
     Eigenvalues --  4573.65611********************
           X            0.99996  -0.00679  -0.00498
           Y            0.00666   0.99961  -0.02714
           Z            0.00516   0.02710   0.99962
 This molecule is an asymmetric top.
 Rotational symmetry number  1.
 Warning -- assumption of classical behavior for rotation
           may cause significant error
 Rotational temperatures (Kelvin)      0.01894     0.00565     0.00491
 Rotational constants (GHZ):           0.39459     0.11777     0.10237
    2 imaginary frequencies ignored.
 Zero-point vibrational energy     876977.6 (Joules/Mol)
                                  209.60267 (Kcal/Mol)
 Warning -- explicit consideration of  31 degrees of freedom as
           vibrations may cause significant error
 Vibrational temperatures:     19.91    34.03    47.47    63.04    85.06
          (Kelvin)            138.42   176.58   216.33   229.35   271.61
                              302.99   331.26   359.76   412.51   423.50
                              438.65   463.47   500.83   524.56   541.49
                              583.54   590.89   600.77   648.62   689.65
                              722.18   750.07   786.34   815.30   846.90
                              876.18   899.51   913.20   945.70  1001.84
                             1022.89  1029.02  1035.37  1102.80  1107.07
                             1112.52  1153.93  1164.95  1209.32  1238.14
                             1243.12  1247.13  1303.22  1341.66  1363.52
                             1392.01  1407.52  1423.83  1436.47  1446.98
                             1459.06  1462.03  1467.49  1500.49  1508.60
                             1517.44  1534.16  1544.04  1551.33  1556.15
                             1593.08  1614.49  1624.49  1637.47  1703.68
                             1708.87  1727.02  1729.04  1729.70  1769.65
                             1776.97  1789.94  1801.84  1829.36  1903.33
                             1918.97  1930.04  1957.35  1963.36  1965.15
                             2011.32  2058.48  2098.25  2115.44  2140.43
                             2145.00  2155.50  2175.85  2191.28  2219.17
                             2362.08  2364.63  2366.35  2390.30  4404.05
                             4420.65  4473.10  4501.22  4505.81  4506.79
                             4588.31  4590.35  4601.91  4604.54  4606.51
                             4618.61  4624.76  4635.53  4638.68  4649.87
                             4662.73  4675.48  5041.77

 Zero-point correction=                           0.334023 (Hartree/Particle)
 Thermal correction to Energy=                    0.353792
 Thermal correction to Enthalpy=                  0.354736
 Thermal correction to Gibbs Free Energy=         0.283191
 Sum of electronic and zero-point Energies=          -1735.604690
 Sum of electronic and thermal Energies=             -1735.584922
 Sum of electronic and thermal Enthalpies=           -1735.583978
 Sum of electronic and thermal Free Energies=        -1735.655523

                     E (Thermal)             CV                S
                      KCal/Mol        Cal/Mol-Kelvin    Cal/Mol-Kelvin
 Total                  222.008             78.901            150.580
 Electronic               0.000              0.000              0.000
 Translational            0.889              2.981             43.444
 Rotational               0.889              2.981             35.467
 Vibrational            220.230             72.939             71.668
 Vibration     1          0.593              1.986              7.366
 Vibration     2          0.593              1.985              6.301
 Vibration     3          0.594              1.983              5.641
 Vibration     4          0.595              1.980              5.079
 Vibration     5          0.596              1.974              4.486
 Vibration     6          0.603              1.952              3.530
 Vibration     7          0.610              1.930              3.057
 Vibration     8          0.618              1.902              2.668
 Vibration     9          0.621              1.892              2.557
 Vibration    10          0.633              1.855              2.240
 Vibration    11          0.643              1.825              2.039
 Vibration    12          0.652              1.795              1.877
 Vibration    13          0.663              1.763              1.730
 Vibration    14          0.684              1.698              1.493
 Vibration    15          0.689              1.684              1.449
 Vibration    16          0.696              1.664              1.390
 Vibration    17          0.707              1.631              1.299
 Vibration    18          0.726              1.579              1.175
 Vibration    19          0.738              1.545              1.102
 Vibration    20          0.747              1.520              1.054
 Vibration    21          0.771              1.458              0.942
 Vibration    22          0.775              1.447              0.924
 Vibration    23          0.781              1.432              0.900
 Vibration    24          0.810              1.359              0.793
 Vibration    25          0.836              1.296              0.712
 Vibration    26          0.857              1.246              0.653
 Vibration    27          0.876              1.203              0.607
 Vibration    28          0.902              1.147              0.551
 Vibration    29          0.923              1.103              0.511
 Vibration    30          0.946              1.056              0.470
 Vibration    31          0.968              1.013              0.434

                           ! Non-Optimized Parameters !
 Normal termination of Gaussian 16 at Mon Sep 21 19:18:38 2020.

 ----------------------------------------------------------------------
 #p b3lyp/6-31G(d) scrf=(iefpcm,read,solvent=water) geom=allcheck guess
 =read
 ----------------------------------------------------------------------

 Structure from the checkpoint file:  "SM36_m0.n.15.pdb.xyz.mst.n.w.chk"
 --------------------
 SM36_m0.n.15.pdb.xyz
 --------------------
 Charge =  0 Multiplicity = 1

 SCF Done:  E(RB3LYP) =  -1735.93871190     A.U. after    4 cycles
 Normal termination of Gaussian 16 at Mon Sep 21 19:19:18 2020.

 -----------------------------
 #p B3LYP/6-31G* geom=allcheck
 -----------------------------

 Structure from the checkpoint file:  "SM36_m0.n.15.pdb.xyz.mst.n.w.chk"
 --------------------
 SM36_m0.n.15.pdb.xyz
 --------------------
 Charge =  0 Multiplicity = 1

 SCF Done:  E(RB3LYP) =  -1735.91125484     A.U. after   15 cycles
 Normal termination of Gaussian 16 at Mon Sep 21 19:20:35 2020.
 Gaussian 16:  ES64L-G16RevB.01 20-Dec-2017

 ----------------------------------------------------------------------
 #p mp2/aug-cc-pVDZ scf=(MaxCycle=2000,NoVarAcc,NoIncFock) maxdisk=120G
 B geom=allcheck
 ----------------------------------------------------------------------

 Structure from the checkpoint file:  "SM36_m0.n.15.pdb.xyz.mst.n.w.chk"
 --------------------
 SM36_m0.n.15.pdb.xyz
 --------------------
 Charge =  0 Multiplicity = 1

                         Standard orientation:
 ---------------------------------------------------------------------
 Center     Atomic      Atomic             Coordinates (Angstroms)
 Number     Number       Type             X           Y           Z
 ---------------------------------------------------------------------
      1          8           0       -1.862843   -2.502241   -1.641009
      2         16           0       -1.620392   -1.530556   -0.559665
      3          7           0       -0.902195   -0.209846   -1.307720
      4          6           0        0.076015    0.653803   -0.601159
      5          6           0       -0.502104    1.225816    0.721875
      6         16           0       -0.413205    2.998220    0.132554
      7          8           0        0.770729    3.713375    0.773734
      8          6           0        0.150929    2.011744   -1.348666
      9          6           0        1.440111   -0.051854   -0.465250
     10          6           0        2.549754    0.751068    0.240076
     11          6           0        3.855086   -0.013573    0.270203
     12          6           0        4.787993    0.121385   -0.766631
     13          6           0        5.981125   -0.603423   -0.757657
     14          6           0        6.261391   -1.478154    0.294076
     15          6           0        5.341064   -1.620723    1.334841
     16          6           0        4.149181   -0.893341    1.321573
     17          6           0       -3.192715   -0.896268    0.010825
     18          6           0       -4.027479   -0.212145   -0.876705
     19          6           0       -5.278530    0.206867   -0.432161
     20          6           0       -5.685356   -0.061630    0.877735
     21          6           0       -4.842766   -0.750129    1.750607
     22          6           0       -3.586300   -1.176834    1.319056
     23          8           0       -0.869971   -1.959434    0.634057
     24          1           0       -0.569671   -0.506690   -2.227037
     25          1           0        0.119938    1.085718    1.605762
     26          1           0       -1.534260    0.953999    0.942094
     27          1           0        1.147946    2.325380   -1.659302
     28          1           0       -0.555048    2.115894   -2.172775
     29          1           0        1.775121   -0.312103   -1.476497
     30          1           0        1.274411   -0.989922    0.071066
     31          1           0        2.241330    0.983483    1.264036
     32          1           0        2.700796    1.708866   -0.267245
     33          1           0        4.578425    0.804280   -1.585271
     34          1           0        6.692465   -0.481306   -1.568381
     35          1           0        7.189603   -2.040345    0.304666
     36          1           0        5.552801   -2.294245    2.159366
     37          1           0        3.439909   -1.004751    2.137281
     38          1           0       -3.699975   -0.001070   -1.887639
     39          1           0       -5.934723    0.744769   -1.106932
     40          1           0       -6.660460    0.269657    1.217376
     41          1           0       -5.159412   -0.955651    2.766844
     42          1           0       -2.913992   -1.708930    1.980294
 ---------------------------------------------------------------------

 SCF Done:  E(RHF) =  -1728.86450251     A.U. after   16 cycles
 E2 =    -0.3441795667D+01 EUMP2 =    -0.17323062981762D+04

 The electronic state is 1-A.
 Alpha  occ. eigenvalues --  -92.23820 -92.08379 -20.57122 -20.56739 -20.52673
 Alpha  occ. eigenvalues --  -15.62749 -11.32978 -11.29926 -11.28754 -11.28629
 Alpha  occ. eigenvalues --  -11.28545 -11.28272 -11.27963 -11.27457 -11.27335
 Alpha  occ. eigenvalues --  -11.24870 -11.24789 -11.24238 -11.24184 -11.24159
 Alpha  occ. eigenvalues --  -11.23894 -11.23846 -11.23805  -9.20612  -9.07200
 Alpha  occ. eigenvalues --   -6.89149  -6.89105  -6.88993  -6.75415  -6.75297
 Alpha  occ. eigenvalues --   -6.75158  -1.46731  -1.34630  -1.33359  -1.26489
 Alpha  occ. eigenvalues --   -1.19465  -1.15763  -1.13516  -1.07136  -1.06916
 Alpha  occ. eigenvalues --   -1.05510  -1.01462  -1.00425  -0.96866  -0.94104
 Alpha  occ. eigenvalues --   -0.90439  -0.86689  -0.85644  -0.82832  -0.82817
 Alpha  occ. eigenvalues --   -0.79790  -0.77453  -0.75124  -0.72224  -0.71197
 Alpha  occ. eigenvalues --   -0.69325  -0.68715  -0.66941  -0.65904  -0.65732
 Alpha  occ. eigenvalues --   -0.64865  -0.63298  -0.63222  -0.62518  -0.61698
 Alpha  occ. eigenvalues --   -0.60295  -0.59352  -0.58489  -0.57580  -0.56966
 Alpha  occ. eigenvalues --   -0.56408  -0.55750  -0.54507  -0.53387  -0.53215
 Alpha  occ. eigenvalues --   -0.52635  -0.52046  -0.50963  -0.50404  -0.49484
 Alpha  occ. eigenvalues --   -0.49023  -0.48475  -0.48160  -0.47866  -0.46316
 Alpha  occ. eigenvalues --   -0.44459  -0.40975  -0.37596  -0.37024  -0.36665
 Alpha  occ. eigenvalues --   -0.33523  -0.32584
 Alpha virt. eigenvalues --    0.02283   0.02881   0.03385   0.03920   0.04131
 Alpha virt. eigenvalues --    0.04896   0.04967   0.05134   0.05775   0.06384
 Alpha virt. eigenvalues --    0.06545   0.06579   0.06828   0.07360   0.07763

 Mulliken charges:
               1
     1  O   -1.187513
     2  S    2.931548
     3  N   -1.034516
     4  C    0.759913
     5  C    0.346154
     6  S    1.564140
     7  O   -1.225775
     8  C    0.513700
     9  C   -0.182265
    10  C    0.886388
    11  C    1.115636
    12  C    0.462241
    13  C    0.031629
    14  C    0.670151
    15  C    0.005473
    16  C    0.592195
    17  C    0.711224
    18  C    0.461774
    19  C    0.341444
    20  C    0.721196
    21  C    0.368547
    22  C    0.249092
    23  O   -1.286529
    24  H   -0.098930
    25  H   -0.328598
    26  H   -0.335621
    27  H   -0.263927
    28  H   -0.339567
    29  H   -0.185918
    30  H   -0.227475
    31  H   -0.303219
    32  H   -0.331599
    33  H   -0.677080
    34  H   -0.469124
    35  H   -0.438736
    36  H   -0.465253
    37  H   -0.664625
    38  H   -0.706394
    39  H   -0.471720
    40  H   -0.443349
    41  H   -0.450643
    42  H   -0.614069
 Sum of Mulliken charges =  -0.00000

 Dipole moment (field-independent basis, Debye):
    X=             -3.9274    Y=              0.5964    Z=             -1.4100  Tot=              4.2152
 Quadrupole moment (field-independent basis, Debye-Ang):
   XX=           -127.6480   YY=           -186.1924   ZZ=           -141.9458
   XY=            -15.9899   XZ=            -11.1023   YZ=            -17.7373

 Normal termination of Gaussian 16 at Mon Sep 21 22:13:59 2020.
