 Gaussian 16, Revision B.01,

 ----------------------------------------------------------------------
 #p b3lyp/6-31G(d) opt freq NoSymm scf=(MaxCycle=2000,NoVarAcc,NoIncFoc
 k) scrf=(iefpcm,read,solvent=water)
 ----------------------------------------------------------------------

 -------------------
 SM36_m0.n.7.pdb.xyz
 -------------------
 Symbolic Z-matrix:
 Charge =  0 Multiplicity = 1

 SCF Done:  E(RB3LYP) =  -1735.94170483     A.U. after   13 cycles
 SCF Done:  E(RB3LYP) =  -1735.94170392     A.U. after    8 cycles
 SCF Done:  E(RB3LYP) =  -1735.94171228     A.U. after    8 cycles
 SCF Done:  E(RB3LYP) =  -1735.94171141     A.U. after    7 cycles
 SCF Done:  E(RB3LYP) =  -1735.94170899     A.U. after    7 cycles
 Optimization completed.
    -- Stationary point found.
 Normal termination of Gaussian 16 at Mon Sep 21 18:40:17 2020.

 --------------------------------------------------------------------
 #P Geom=AllCheck Guess=TCheck SCRF=Check GenChk RB3LYP/6-31G(d) Freq
 --------------------------------------------------------------------

 Structure from the checkpoint file:  "SM36_m0.n.7.pdb.xyz.mst.n.w.chk"
 -------------------
 SM36_m0.n.7.pdb.xyz
 -------------------
 Charge =  0 Multiplicity = 1

 SCF Done:  E(RB3LYP) =  -1735.94170899     A.U. after    1 cycles

  Exact polarizability: 320.362 -13.845 278.228  23.131 -13.961 280.894
 Approx polarizability: 358.328 -19.513 318.313  21.417 -25.217 331.835

                      1                      2                      3
                      A                      A                      A
 Frequencies --     14.9556                16.6474                25.4600
 Red. masses --      4.9499                 4.5357                 5.2598
 Frc consts  --      0.0007                 0.0007                 0.0020
 IR Inten    --      0.7769                 0.3677                 0.4027

                      4                      5                      6
                      A                      A                      A
 Frequencies --     29.6932                34.4089                65.4030
 Red. masses --      4.8641                 4.9377                 5.1941
 Frc consts  --      0.0025                 0.0034                 0.0131
 IR Inten    --      1.1363                 0.5544                 2.1014

                      7                      8                      9
                      A                      A                      A
 Frequencies --     75.5976               100.9803               127.1595
 Red. masses --      8.5416                 4.3127                 5.7161
 Frc consts  --      0.0288                 0.0259                 0.0545
 IR Inten    --     10.4976                 0.5609                10.8252

                     10                     11                     12
                      A                      A                      A
 Frequencies --    150.1764               162.7121               185.5739
 Red. masses --      6.7043                 4.8414                 4.6693
 Frc consts  --      0.0891                 0.0755                 0.0947
 IR Inten    --      3.1929                 3.5096                11.2557

                     13                     14                     15
                      A                      A                      A
 Frequencies --    211.4345               241.8379               260.0733
 Red. masses --      4.7252                 5.9994                 5.2278
 Frc consts  --      0.1245                 0.2067                 0.2083
 IR Inten    --      5.5975                 7.7937                 1.0465

                     16                     17                     18
                      A                      A                      A
 Frequencies --    282.3551               292.9056               306.5311
 Red. masses --      2.9787                 2.9680                 6.7891
 Frc consts  --      0.1399                 0.1500                 0.3758
 IR Inten    --      3.1560                 3.8700                 9.3658

                     19                     20                     21
                      A                      A                      A
 Frequencies --    333.9271               334.7977               365.6801
 Red. masses --      3.9479                 2.6797                 2.4261
 Frc consts  --      0.2594                 0.1770                 0.1911
 IR Inten    --      8.0481                 7.1717                 8.7394

                     22                     23                     24
                      A                      A                      A
 Frequencies --    382.4845               410.5715               417.2853
 Red. masses --      3.8676                 2.7264                 2.8894
 Frc consts  --      0.3334                 0.2708                 0.2964
 IR Inten    --      9.4910                11.8427                 4.0445

                     25                     26                     27
                      A                      A                      A
 Frequencies --    417.9805               423.8090               478.3151
 Red. masses --      2.6073                 4.1167                 3.0916
 Frc consts  --      0.2684                 0.4356                 0.4167
 IR Inten    --     15.7643                39.0883                85.0386

                     28                     29                     30
                      A                      A                      A
 Frequencies --    491.0008               520.3214               545.3962
 Red. masses --      3.4536                 3.3005                 8.4650
 Frc consts  --      0.4906                 0.5265                 1.4836
 IR Inten    --     48.9466                15.0701               105.3948

                     31                     32                     33
                      A                      A                      A
 Frequencies --    567.1918               593.8601               610.2638
 Red. masses --      7.7728                 4.6201                 4.2953
 Frc consts  --      1.4733                 0.9600                 0.9425
 IR Inten    --    152.8697                39.5486                88.4109

                     34                     35                     36
                      A                      A                      A
 Frequencies --    626.0446               634.6992               637.8087
 Red. masses --      6.4336                 6.3322                 4.5102
 Frc consts  --      1.4856                 1.5029                 1.0810
 IR Inten    --      0.4159                 0.5065                17.7910

                     37                     38                     39
                      A                      A                      A
 Frequencies --    698.0866               711.3420               716.8582
 Red. masses --      2.5053                 3.2640                 2.0045
 Frc consts  --      0.7193                 0.9731                 0.6069
 IR Inten    --     45.5919                 4.1559                24.3951

                     40                     41                     42
                      A                      A                      A
 Frequencies --    717.5537               765.0282               768.5185
 Red. masses --      5.1406                 1.7618                 1.5013
 Frc consts  --      1.5595                 0.6075                 0.5224
 IR Inten    --     26.9910                64.7651                37.6582

                     43                     44                     45
                      A                      A                      A
 Frequencies --    783.4839               801.9240               828.5321
 Red. masses --      1.4222                 3.2071                 1.6834
 Frc consts  --      0.5144                 1.2151                 0.6809
 IR Inten    --     34.6972                 3.2536                19.2566

                     46                     47                     48
                      A                      A                      A
 Frequencies --    835.5396               861.0170               865.3117
 Red. masses --      3.7734                 1.2457                 1.2499
 Frc consts  --      1.5521                 0.5441                 0.5514
 IR Inten    --     34.9385                 0.0829                 0.1377

                     49                     50                     51
                      A                      A                      A
 Frequencies --    890.0813               912.4859               934.2528
 Red. masses --      3.0306                 2.6031                 1.4792
 Frc consts  --      1.4146                 1.2770                 0.7607
 IR Inten    --    151.9604               131.4373                 5.7976

                     52                     53                     54
                      A                      A                      A
 Frequencies --    951.4707               976.1131               979.9916
 Red. masses --      1.3118                 1.3728                 2.1354
 Frc consts  --      0.6997                 0.7706                 1.2083
 IR Inten    --      1.9442                 5.5881               119.9792

                     55                     56                     57
                      A                      A                      A
 Frequencies --    991.4271               997.1128              1003.5557
 Red. masses --      1.3537                 2.0332                 1.2660
 Frc consts  --      0.7840                 1.1910                 0.7512
 IR Inten    --      0.4720                14.4675                 0.2375

                     58                     59                     60
                      A                      A                      A
 Frequencies --   1014.2018              1016.1592              1021.4633
 Red. masses --      6.2675                 6.1542                 1.2855
 Frc consts  --      3.7983                 3.7441                 0.7903
 IR Inten    --     11.8322                 0.3184                 0.1654

                     61                     62                     63
                      A                      A                      A
 Frequencies --   1041.4318              1048.6609              1054.0964
 Red. masses --      3.8633                 2.9895                 2.0078
 Frc consts  --      2.4687                 1.9369                 1.3144
 IR Inten    --      8.8441                23.5394                11.0779

                     64                     65                     66
                      A                      A                      A
 Frequencies --   1054.7559              1068.6571              1078.5332
 Red. masses --      1.3146                 2.9508                 3.8750
 Frc consts  --      0.8617                 1.9855                 2.6558
 IR Inten    --      1.6996               349.3080                54.8388

                     67                     68                     69
                      A                      A                      A
 Frequencies --   1091.7451              1108.8828              1109.7472
 Red. masses --      1.7826                 2.8826                 1.5979
 Frc consts  --      1.2519                 2.0884                 1.1595
 IR Inten    --      6.3792                10.3768                17.0012

                     70                     71                     72
                      A                      A                      A
 Frequencies --   1127.8814              1138.5054              1183.9440
 Red. masses --      3.8220                 1.6537                 1.0926
 Frc consts  --      2.8646                 1.2630                 0.9023
 IR Inten    --    217.6070                21.8363                 0.1245

                     73                     74                     75
                      A                      A                      A
 Frequencies --   1195.2067              1195.2571              1201.3685
 Red. masses --      1.2578                 1.1373                 1.1357
 Frc consts  --      1.0587                 0.9573                 0.9658
 IR Inten    --      1.4625                 0.2070                 0.4286

                     76                     77                     78
                      A                      A                      A
 Frequencies --   1205.1350              1210.6184              1234.9543
 Red. masses --      1.1544                 1.3264                 2.5422
 Frc consts  --      0.9878                 1.1454                 2.2844
 IR Inten    --      1.0817                12.7756                 2.6365

                     79                     80                     81
                      A                      A                      A
 Frequencies --   1246.9147              1273.5449              1281.3394
 Red. masses --      3.1884                 1.7082                 4.2576
 Frc consts  --      2.9208                 1.6323                 4.1186
 IR Inten    --     91.7351                76.6119               256.7065

                     82                     83                     84
                      A                      A                      A
 Frequencies --   1317.9258              1341.8106              1345.4369
 Red. masses --      1.4456                 1.4684                 1.5514
 Frc consts  --      1.4793                 1.5577                 1.6546
 IR Inten    --      1.8113                 1.7346                42.3830

                     85                     86                     87
                      A                      A                      A
 Frequencies --   1360.3866              1364.3594              1367.6514
 Red. masses --      2.7964                 4.7968                 1.3198
 Frc consts  --      3.0491                 5.2609                 1.4545
 IR Inten    --      1.0277                 4.4753                16.5130

                     88                     89                     90
                      A                      A                      A
 Frequencies --   1403.8468              1450.1865              1454.8792
 Red. masses --      1.5124                 1.2369                 1.0944
 Frc consts  --      1.7562                 1.5326                 1.3648
 IR Inten    --      1.7713                73.1912                26.1376

                     91                     92                     93
                      A                      A                      A
 Frequencies --   1476.2477              1492.6540              1497.3558
 Red. masses --      1.1346                 2.1698                 2.1788
 Frc consts  --      1.4569                 2.8483                 2.8782
 IR Inten    --      9.1210                24.2328                 6.2303

                     94                     95                     96
                      A                      A                      A
 Frequencies --   1503.9607              1521.6837              1523.3024
 Red. masses --      1.0877                 1.1045                 2.0682
 Frc consts  --      1.4495                 1.5068                 2.8276
 IR Inten    --      1.5799                 6.1859                 4.8751

                     97                     98                     99
                      A                      A                      A
 Frequencies --   1542.2379              1641.5107              1642.0452
 Red. masses --      2.2597                 5.5156                 5.5098
 Frc consts  --      3.1667                 8.7565                 8.7530
 IR Inten    --     19.8349                 1.2203                 3.2792

                    100                    101                    102
                      A                      A                      A
 Frequencies --   1646.1955              1661.0073              3053.1402
 Red. masses --      5.7895                 5.7312                 1.0656
 Frc consts  --      9.2439                 9.3163                 5.8525
 IR Inten    --      0.0990                11.0820                16.7819

                    103                    104                    105
                      A                      A                      A
 Frequencies --   3069.6339              3109.2118              3125.4602
 Red. masses --      1.0625                 1.0977                 1.0714
 Frc consts  --      5.8989                 6.2525                 6.1666
 IR Inten    --     62.5943                 5.4807                21.0856

                    106                    107                    108
                      A                      A                      A
 Frequencies --   3126.2166              3134.1904              3188.5324
 Red. masses --      1.0850                 1.0577                 1.0866
 Frc consts  --      6.2478                 6.1214                 6.5088
 IR Inten    --     27.9271                 7.9906                14.8171

                    109                    110                    111
                      A                      A                      A
 Frequencies --   3190.4736              3201.5788              3201.9257
 Red. masses --      1.0875                 1.0897                 1.1113
 Frc consts  --      6.5221                 6.5810                 6.7130
 IR Inten    --     15.3020                14.4373                 1.0016

                    112                    113                    114
                      A                      A                      A
 Frequencies --   3203.0535              3209.6399              3217.2943
 Red. masses --      1.1103                 1.0937                 1.0866
 Frc consts  --      6.7117                 6.6387                 6.6268
 IR Inten    --      4.9466                73.5368                 0.4677

                    115                    116                    117
                      A                      A                      A
 Frequencies --   3221.6830              3224.6717              3234.7023
 Red. masses --      1.0977                 1.0896                 1.0929
 Frc consts  --      6.7129                 6.6758                 6.7374
 IR Inten    --     34.5594                15.4190                21.2559

                    118                    119                    120
                      A                      A                      A
 Frequencies --   3241.6916              3249.1793              3511.5107
 Red. masses --      1.0961                 1.0934                 1.0761
 Frc consts  --      6.7862                 6.8011                 7.8178
 IR Inten    --     14.7097                 6.2640               148.1178

 - Thermochemistry -
 -------------------
 Temperature   298.150 Kelvin.  Pressure   1.00000 Atm.
 Atom     1 has atomic number  8 and mass  15.99491

 Molecular mass:   349.08064 amu.
 Principal axes and moments of inertia in atomic units:
                           1         2         3
     Eigenvalues --  6044.06757********************
           X            0.99995  -0.00554   0.00881
           Y            0.00512   0.99889   0.04683
           Z           -0.00906  -0.04678   0.99886
 This molecule is an asymmetric top.
 Rotational symmetry number  1.
 Warning -- assumption of classical behavior for rotation
           may cause significant error
 Rotational temperatures (Kelvin)      0.01433     0.00641     0.00540
 Rotational constants (GHZ):           0.29860     0.13362     0.11259
 Zero-point vibrational energy     878277.4 (Joules/Mol)
                                  209.91333 (Kcal/Mol)
 Warning -- explicit consideration of  33 degrees of freedom as
           vibrations may cause significant error
 Vibrational temperatures:     21.52    23.95    36.63    42.72    49.51
          (Kelvin)             94.10   108.77   145.29   182.95   216.07
                              234.11   267.00   304.21   347.95   374.19
                              406.25   421.43   441.03   480.45   481.70
                              526.13   550.31   590.72   600.38   601.38
                              609.77   688.19   706.44   748.63   784.70
                              816.06   854.43   878.03   900.74   913.19
                              917.66  1004.39  1023.46  1031.40  1032.40
                             1100.70  1105.73  1127.26  1153.79  1192.07
                             1202.16  1238.81  1244.99  1280.63  1312.86
                             1344.18  1368.95  1404.41  1409.99  1426.44
                             1434.62  1443.89  1459.21  1462.03  1469.66
                             1498.39  1508.79  1516.61  1517.56  1537.56
                             1551.77  1570.78  1595.44  1596.68  1622.77
                             1638.06  1703.43  1719.64  1719.71  1728.50
                             1733.92  1741.81  1776.82  1794.03  1832.35
                             1843.56  1896.20  1930.57  1935.78  1957.29
                             1963.01  1967.75  2019.82  2086.49  2093.25
                             2123.99  2147.60  2154.36  2163.86  2189.36
                             2191.69  2218.94  2361.77  2362.54  2368.51
                             2389.82  4392.79  4416.52  4473.46  4496.84
                             4497.93  4509.40  4587.59  4590.38  4606.36
                             4606.86  4608.48  4617.96  4628.97  4635.28
                             4639.58  4654.02  4664.07  4674.84  5052.28

 Zero-point correction=                           0.334518 (Hartree/Particle)
 Thermal correction to Energy=                    0.355945
 Thermal correction to Enthalpy=                  0.356889
 Thermal correction to Gibbs Free Energy=         0.280136
 Sum of electronic and zero-point Energies=          -1735.607191
 Sum of electronic and thermal Energies=             -1735.585764
 Sum of electronic and thermal Enthalpies=           -1735.584820
 Sum of electronic and thermal Free Energies=        -1735.661573

                     E (Thermal)             CV                S
                      KCal/Mol        Cal/Mol-Kelvin    Cal/Mol-Kelvin
 Total                  223.359             82.777            161.541
 Electronic               0.000              0.000              0.000
 Translational            0.889              2.981             43.444
 Rotational               0.889              2.981             35.524
 Vibrational            221.581             76.816             82.572
 Vibration     1          0.593              1.986              7.211
 Vibration     2          0.593              1.986              6.999
 Vibration     3          0.593              1.985              6.155
 Vibration     4          0.593              1.984              5.850
 Vibration     5          0.594              1.983              5.557
 Vibration     6          0.597              1.971              4.287
 Vibration     7          0.599              1.965              4.002
 Vibration     8          0.604              1.948              3.435
 Vibration     9          0.611              1.926              2.989
 Vibration    10          0.618              1.902              2.670
 Vibration    11          0.623              1.888              2.518
 Vibration    12          0.632              1.860              2.272
 Vibration    13          0.643              1.823              2.031
 Vibration    14          0.658              1.776              1.789
 Vibration    15          0.668              1.746              1.661
 Vibration    16          0.681              1.706              1.519
 Vibration    17          0.688              1.687              1.457
 Vibration    18          0.697              1.661              1.381
 Vibration    19          0.715              1.608              1.241
 Vibration    20          0.716              1.606              1.237
 Vibration    21          0.739              1.543              1.098
 Vibration    22          0.752              1.508              1.029
 Vibration    23          0.775              1.447              0.925
 Vibration    24          0.780              1.433              0.901
 Vibration    25          0.781              1.431              0.899
 Vibration    26          0.786              1.418              0.879
 Vibration    27          0.835              1.298              0.715
 Vibration    28          0.847              1.270              0.681
 Vibration    29          0.875              1.205              0.609
 Vibration    30          0.901              1.150              0.554
 Vibration    31          0.923              1.102              0.510
 Vibration    32          0.951              1.045              0.460
 Vibration    33          0.969              1.010              0.432

                           ! Non-Optimized Parameters !
 Normal termination of Gaussian 16 at Mon Sep 21 19:04:01 2020.

 ----------------------------------------------------------------------
 #p b3lyp/6-31G(d) scrf=(iefpcm,read,solvent=water) geom=allcheck guess
 =read
 ----------------------------------------------------------------------

 Structure from the checkpoint file:  "SM36_m0.n.7.pdb.xyz.mst.n.w.chk"
 -------------------
 SM36_m0.n.7.pdb.xyz
 -------------------
 Charge =  0 Multiplicity = 1

 SCF Done:  E(RB3LYP) =  -1735.94170410     A.U. after    6 cycles
 Normal termination of Gaussian 16 at Mon Sep 21 19:05:03 2020.

 -----------------------------
 #p B3LYP/6-31G* geom=allcheck
 -----------------------------

 Structure from the checkpoint file:  "SM36_m0.n.7.pdb.xyz.mst.n.w.chk"
 -------------------
 SM36_m0.n.7.pdb.xyz
 -------------------
 Charge =  0 Multiplicity = 1

 SCF Done:  E(RB3LYP) =  -1735.91608876     A.U. after   15 cycles
 Normal termination of Gaussian 16 at Mon Sep 21 19:06:21 2020.
 Gaussian 16:  ES64L-G16RevB.01 20-Dec-2017

 ----------------------------------------------------------------------
 #p mp2/aug-cc-pVDZ scf=(MaxCycle=2000,NoVarAcc,NoIncFock) maxdisk=120G
 B geom=allcheck
 ----------------------------------------------------------------------

 Structure from the checkpoint file:  "SM36_m0.n.7.pdb.xyz.mst.n.w.chk"
 -------------------
 SM36_m0.n.7.pdb.xyz
 -------------------
 Charge =  0 Multiplicity = 1

                         Standard orientation:
 ---------------------------------------------------------------------
 Center     Atomic      Atomic             Coordinates (Angstroms)
 Number     Number       Type             X           Y           Z
 ---------------------------------------------------------------------
      1          8           0       -2.591787   -0.591741    2.655832
      2         16           0       -2.350765    0.078423    1.366181
      3          7           0       -0.686665    0.124325    1.209996
      4          6           0        0.041683    1.144080    0.438262
      5          6           0       -0.122247    2.627976    0.866193
      6         16           0       -0.111347    3.204730   -0.911203
      7          8           0        1.322503    3.481845   -1.356927
      8          6           0       -0.457707    1.370302   -1.009031
      9          6           0        1.531305    0.752649    0.466475
     10          6           0        1.841046   -0.632601   -0.123424
     11          6           0        3.319981   -0.946545   -0.090348
     12          6           0        3.866540   -1.703109    0.954492
     13          6           0        5.235509   -1.973886    1.006483
     14          6           0        6.082877   -1.489609    0.008048
     15          6           0        5.551079   -0.735133   -1.040474
     16          6           0        4.181718   -0.467026   -1.087950
     17          6           0       -2.890633   -0.994298    0.043391
     18          6           0       -2.293068   -2.246578   -0.120856
     19          6           0       -2.779666   -3.094922   -1.112639
     20          6           0       -3.848889   -2.694356   -1.918338
     21          6           0       -4.439177   -1.442826   -1.738543
     22          6           0       -3.961938   -0.582277   -0.748485
     23          8           0       -2.958128    1.400992    1.127132
     24          1           0       -0.268436   -0.072117    2.120948
     25          1           0        0.674221    3.069270    1.466974
     26          1           0       -1.105655    2.848524    1.281246
     27          1           0        0.082441    0.868860   -1.812111
     28          1           0       -1.532658    1.249865   -1.140730
     29          1           0        1.879384    0.798845    1.505694
     30          1           0        2.073679    1.527718   -0.083885
     31          1           0        1.478629   -0.673375   -1.156621
     32          1           0        1.287797   -1.391111    0.437110
     33          1           0        3.210122   -2.086525    1.730709
     34          1           0        5.637801   -2.565280    1.822922
     35          1           0        7.146706   -1.700865    0.043933
     36          1           0        6.201643   -0.358894   -1.823828
     37          1           0        3.775362    0.116784   -1.909570
     38          1           0       -1.460185   -2.546038    0.504176
     39          1           0       -2.323221   -4.067444   -1.258202
     40          1           0       -4.220092   -3.360661   -2.689124
     41          1           0       -5.268096   -1.133452   -2.365352
     42          1           0       -4.400192    0.395356   -0.591731
 ---------------------------------------------------------------------

 SCF Done:  E(RHF) =  -1728.86992423     A.U. after   16 cycles
 E2 =    -0.3442116508D+01 EUMP2 =    -0.17323120407353D+04

 The electronic state is 1-A.
 Alpha  occ. eigenvalues --  -92.24003 -92.08013 -20.57323 -20.56851 -20.52227
 Alpha  occ. eigenvalues --  -15.62694 -11.32800 -11.30008 -11.28651 -11.28536
 Alpha  occ. eigenvalues --  -11.28380 -11.28038 -11.27729 -11.27512 -11.27427
 Alpha  occ. eigenvalues --  -11.25375 -11.25199 -11.24946 -11.24682 -11.24593
 Alpha  occ. eigenvalues --  -11.24400 -11.24290 -11.24227  -9.20797  -9.06822
 Alpha  occ. eigenvalues --   -6.89337  -6.89292  -6.89181  -6.75031  -6.74908
 Alpha  occ. eigenvalues --   -6.74778  -1.46977  -1.34843  -1.33024  -1.26542
 Alpha  occ. eigenvalues --   -1.19536  -1.16205  -1.13808  -1.07674  -1.07046
 Alpha  occ. eigenvalues --   -1.05574  -1.01899  -1.00857  -0.96038  -0.94006
 Alpha  occ. eigenvalues --   -0.90895  -0.86781  -0.85477  -0.83365  -0.83133
 Alpha  occ. eigenvalues --   -0.80040  -0.77923  -0.75155  -0.72158  -0.70862
 Alpha  occ. eigenvalues --   -0.70053  -0.69013  -0.66799  -0.66579  -0.65302
 Alpha  occ. eigenvalues --   -0.64708  -0.64101  -0.63440  -0.62593  -0.61459
 Alpha  occ. eigenvalues --   -0.60499  -0.59574  -0.58947  -0.58193  -0.56573
 Alpha  occ. eigenvalues --   -0.55848  -0.54922  -0.54780  -0.54051  -0.53384
 Alpha  occ. eigenvalues --   -0.53299  -0.52290  -0.50932  -0.50478  -0.49903
 Alpha  occ. eigenvalues --   -0.49129  -0.48734  -0.48478  -0.48096  -0.46593
 Alpha  occ. eigenvalues --   -0.44176  -0.40344  -0.37738  -0.37096  -0.36646
 Alpha  occ. eigenvalues --   -0.33961  -0.33064
 Alpha virt. eigenvalues --    0.02309   0.02958   0.03569   0.03904   0.04339
 Alpha virt. eigenvalues --    0.04460   0.05047   0.05224   0.06148   0.06216
 Alpha virt. eigenvalues --    0.06292   0.06669   0.06820   0.07478   0.07646

 Mulliken charges:
               1
     1  O   -1.188371
     2  S    2.891076
     3  N   -1.144402
     4  C    0.712658
     5  C    0.389977
     6  S    1.509835
     7  O   -1.250091
     8  C    0.198008
     9  C    0.028081
    10  C    0.812136
    11  C    1.181360
    12  C    0.560617
    13  C   -0.005716
    14  C    0.664902
    15  C    0.023958
    16  C    0.517524
    17  C    0.625854
    18  C    0.573117
    19  C    0.215066
    20  C    0.758200
    21  C    0.390377
    22  C    0.355900
    23  O   -1.267026
    24  H   -0.064179
    25  H   -0.343232
    26  H   -0.225750
    27  H   -0.289931
    28  H   -0.218288
    29  H   -0.187302
    30  H   -0.117814
    31  H   -0.301031
    32  H   -0.364673
    33  H   -0.655684
    34  H   -0.471981
    35  H   -0.437066
    36  H   -0.466258
    37  H   -0.682403
    38  H   -0.681760
    39  H   -0.501446
    40  H   -0.453007
    41  H   -0.462568
    42  H   -0.628667
 Sum of Mulliken charges =  -0.00000

 Dipole moment (field-independent basis, Debye):
    X=             -0.8304    Y=             -4.6851    Z=             -1.8312  Tot=              5.0984
 Quadrupole moment (field-independent basis, Debye-Ang):
   XX=           -151.0327   YY=           -160.9593   ZZ=           -155.5238
   XY=             -2.9811   XZ=             24.1171   YZ=             11.3592

 Normal termination of Gaussian 16 at Mon Sep 21 22:10:07 2020.
