 Gaussian 16, Revision B.01,

 ----------------------------------------------------------------------
 #p b3lyp/6-31G(d) opt freq NoSymm scf=(MaxCycle=2000,NoVarAcc,NoIncFoc
 k) scrf=(iefpcm,read,solvent=water)
 ----------------------------------------------------------------------

 --------------------
 SM36_m1.a.12.pdb.xyz
 --------------------
 Symbolic Z-matrix:
 Charge = -1 Multiplicity = 1

 SCF Done:  E(RB3LYP) =  -1735.53967330     A.U. after   13 cycles
 SCF Done:  E(RB3LYP) =  -1735.53967868     A.U. after    8 cycles
 SCF Done:  E(RB3LYP) =  -1735.53968038     A.U. after    8 cycles
 SCF Done:  E(RB3LYP) =  -1735.53967911     A.U. after    7 cycles
 Optimization completed.
    -- Stationary point found.
 Normal termination of Gaussian 16 at Mon Sep 21 18:38:40 2020.

 --------------------------------------------------------------------
 #P Geom=AllCheck Guess=TCheck SCRF=Check GenChk RB3LYP/6-31G(d) Freq
 --------------------------------------------------------------------

 Structure from the checkpoint file:  "SM36_m1.a.12.pdb.xyz.mst.a.w.chk"
 --------------------
 SM36_m1.a.12.pdb.xyz
 --------------------
 Charge = -1 Multiplicity = 1

 SCF Done:  E(RB3LYP) =  -1735.53967911     A.U. after    1 cycles

  Exact polarizability: 366.232   4.328 256.406 -29.103  25.046 287.164
 Approx polarizability: 391.903   9.677 302.658 -26.890  30.683 342.385

                      1                      2                      3
                      A                      A                      A
 Frequencies --     18.7244                21.4484                33.5176
 Red. masses --      5.6541                 6.4643                 3.9201
 Frc consts  --      0.0012                 0.0018                 0.0026
 IR Inten    --      1.9865                 4.1981                 0.3263

                      4                      5                      6
                      A                      A                      A
 Frequencies --     38.3729                40.9418                51.8628
 Red. masses --      4.1490                 6.8278                 6.1721
 Frc consts  --      0.0036                 0.0067                 0.0098
 IR Inten    --      0.0936                 1.6082                 1.2445

                      7                      8                      9
                      A                      A                      A
 Frequencies --     64.5438               112.6300               131.0312
 Red. masses --      7.1682                 5.2085                 6.2251
 Frc consts  --      0.0176                 0.0389                 0.0630
 IR Inten    --     14.1117                 0.1034                 4.9601

                     10                     11                     12
                      A                      A                      A
 Frequencies --    160.5514               171.9789               176.1486
 Red. masses --      5.7839                 5.3017                 4.4521
 Frc consts  --      0.0878                 0.0924                 0.0814
 IR Inten    --      8.8672                 4.0038                13.2020

                     13                     14                     15
                      A                      A                      A
 Frequencies --    214.9689               261.5632               277.0867
 Red. masses --      6.0375                 8.1572                 5.0423
 Frc consts  --      0.1644                 0.3288                 0.2281
 IR Inten    --     12.9348                 1.7168                 2.0787

                     16                     17                     18
                      A                      A                      A
 Frequencies --    290.2027               297.6730               325.8409
 Red. masses --      3.5422                 5.9330                 2.9808
 Frc consts  --      0.1758                 0.3097                 0.1865
 IR Inten    --     15.9742                 6.5065                 4.8843

                     19                     20                     21
                      A                      A                      A
 Frequencies --    339.8816               364.4278               377.4650
 Red. masses --      4.0326                 2.0606                 2.7391
 Frc consts  --      0.2745                 0.1612                 0.2299
 IR Inten    --     10.3708                 0.9534                 6.2001

                     22                     23                     24
                      A                      A                      A
 Frequencies --    385.6232               414.4068               415.4427
 Red. masses --      4.6712                 3.2093                 3.2258
 Frc consts  --      0.4093                 0.3247                 0.3280
 IR Inten    --      4.7428                 2.0743                 1.1228

                     25                     26                     27
                      A                      A                      A
 Frequencies --    416.9881               473.7307               501.3690
 Red. masses --      3.8871                 3.9977                 4.1403
 Frc consts  --      0.3982                 0.5286                 0.6132
 IR Inten    --      5.0106                14.5423                10.9369

                     28                     29                     30
                      A                      A                      A
 Frequencies --    509.8490               549.9824               570.8155
 Red. masses --      4.0435                 6.4167                 6.2454
 Frc consts  --      0.6193                 1.1436                 1.1989
 IR Inten    --      3.5151                50.1294               172.9856

                     31                     32                     33
                      A                      A                      A
 Frequencies --    588.1632               600.9467               628.0800
 Red. masses --      5.5861                 3.6867                 6.4369
 Frc consts  --      1.1386                 0.7844                 1.4961
 IR Inten    --     77.4170               117.3827                 0.1228

                     34                     35                     36
                      A                      A                      A
 Frequencies --    634.3303               638.6730               687.3247
 Red. masses --      6.3228                 4.5725                 5.4504
 Frc consts  --      1.4990                 1.0989                 1.5171
 IR Inten    --      0.2019                16.9192                37.9745

                     37                     38                     39
                      A                      A                      A
 Frequencies --    705.4042               712.6189               714.6304
 Red. masses --      2.6220                 4.7479                 2.0883
 Frc consts  --      0.7687                 1.4206                 0.6284
 IR Inten    --     55.3224                54.0593                60.5910

                     40                     41                     42
                      A                      A                      A
 Frequencies --    740.8402               768.4143               772.7325
 Red. masses --      2.4725                 1.5493                 2.6109
 Frc consts  --      0.7995                 0.5390                 0.9185
 IR Inten    --     20.2756                37.0003                26.2414

                     43                     44                     45
                      A                      A                      A
 Frequencies --    775.6774               817.2666               842.7776
 Red. masses --      2.2059                 1.7624                 3.1649
 Frc consts  --      0.7820                 0.6935                 1.3245
 IR Inten    --     10.4313                 4.8443                85.1255

                     46                     47                     48
                      A                      A                      A
 Frequencies --    865.6364               866.6830               884.4909
 Red. masses --      1.2571                 1.2434                 2.2954
 Frc consts  --      0.5550                 0.5503                 1.0580
 IR Inten    --      0.2177                 0.4417                16.5579

                     49                     50                     51
                      A                      A                      A
 Frequencies --    919.5359               936.9568               941.7503
 Red. masses --      2.0698                 1.7509                 1.3320
 Frc consts  --      1.0312                 0.9056                 0.6961
 IR Inten    --     29.9395                 9.1389                 3.4190

                     52                     53                     54
                      A                      A                      A
 Frequencies --    958.6714               975.1271               985.5678
 Red. masses --      2.5322                 1.3550                 1.3543
 Frc consts  --      1.3712                 0.7591                 0.7751
 IR Inten    --    113.1092                 0.1447                 1.0110

                     55                     56                     57
                      A                      A                      A
 Frequencies --    993.3896              1000.7609              1009.0327
 Red. masses --      2.7336                 1.2668                 1.2613
 Frc consts  --      1.5894                 0.7475                 0.7567
 IR Inten    --    108.1418                 3.7881                 0.7276

                     58                     59                     60
                      A                      A                      A
 Frequencies --   1012.7418              1015.4499              1030.3067
 Red. masses --      5.7750                 6.1769                 5.0092
 Frc consts  --      3.4898                 3.7526                 3.1330
 IR Inten    --     22.5969                 1.6628               181.4046

                     61                     62                     63
                      A                      A                      A
 Frequencies --   1048.9550              1050.1176              1055.2223
 Red. masses --      2.6813                 1.7802                 1.9035
 Frc consts  --      1.7382                 1.1566                 1.2488
 IR Inten    --      1.4457                78.9595                14.8877

                     64                     65                     66
                      A                      A                      A
 Frequencies --   1065.1306              1067.8091              1085.7250
 Red. masses --      2.0271                 2.5554                 2.4582
 Frc consts  --      1.3550                 1.7167                 1.7073
 IR Inten    --     38.1056               141.6242                16.4319

                     67                     68                     69
                      A                      A                      A
 Frequencies --   1102.5746              1110.4027              1112.5448
 Red. masses --      1.5956                 2.9899                 1.9892
 Frc consts  --      1.1428                 2.1720                 1.4507
 IR Inten    --      8.8534               142.5634               164.7951

                     70                     71                     72
                      A                      A                      A
 Frequencies --   1140.8099              1171.5402              1185.1430
 Red. masses --      3.0993                12.3967                 1.0966
 Frc consts  --      2.3765                10.0247                 0.9075
 IR Inten    --    345.4312               487.3972                 1.0615

                     73                     74                     75
                      A                      A                      A
 Frequencies --   1187.5105              1196.3459              1200.6082
 Red. masses --      1.0993                 1.2800                 1.1529
 Frc consts  --      0.9134                 1.0793                 0.9791
 IR Inten    --      0.0786                 1.8875                 1.9576

                     76                     77                     78
                      A                      A                      A
 Frequencies --   1207.5619              1210.7604              1228.6769
 Red. masses --      1.1614                 1.2458                 2.5635
 Frc consts  --      0.9978                 1.0760                 2.2801
 IR Inten    --      1.8064                 5.7190                 4.3871

                     79                     80                     81
                      A                      A                      A
 Frequencies --   1237.4893              1277.5827              1299.1698
 Red. masses --      1.8236                 1.9220                 1.2956
 Frc consts  --      1.6454                 1.8483                 1.2884
 IR Inten    --     55.6034               115.0069                31.9510

                     82                     83                     84
                      A                      A                      A
 Frequencies --   1332.8200              1351.4125              1353.0239
 Red. masses --      1.7633                 3.8600                 3.3479
 Frc consts  --      1.8456                 4.1535                 3.6111
 IR Inten    --      1.8450                 1.2402                 0.7678

                     85                     86                     87
                      A                      A                      A
 Frequencies --   1365.6719              1386.4195              1402.8099
 Red. masses --      1.4226                 1.3194                 1.4036
 Frc consts  --      1.5633                 1.4942                 1.6274
 IR Inten    --      2.8878                 9.6644                14.1677

                     88                     89                     90
                      A                      A                      A
 Frequencies --   1447.7911              1466.3957              1484.7879
 Red. masses --      1.0893                 1.1119                 2.1223
 Frc consts  --      1.3452                 1.4087                 2.7567
 IR Inten    --     13.8568                10.5254                18.7088

                     91                     92                     93
                      A                      A                      A
 Frequencies --   1496.2429              1501.8767              1514.1074
 Red. masses --      2.0071                 1.0907                 1.1482
 Frc consts  --      2.6474                 1.4495                 1.5509
 IR Inten    --      8.3086                 3.9722                 7.7053

                     94                     95                     96
                      A                      A                      A
 Frequencies --   1521.5678              1542.5923              1635.1970
 Red. masses --      2.0663                 2.1933                 5.6825
 Frc consts  --      2.8186                 3.0750                 8.9521
 IR Inten    --      8.2807                18.9359                 0.2461

                     97                     98                     99
                      A                      A                      A
 Frequencies --   1636.8276              1640.5807              1658.1925
 Red. masses --      5.3934                 5.4735                 5.5608
 Frc consts  --      8.5137                 8.6798                 9.0085
 IR Inten    --      1.2193                 0.6789                10.9855

                    100                    101                    102
                      A                      A                      A
 Frequencies --   3033.6052              3045.5514              3087.7189
 Red. masses --      1.0652                 1.0670                 1.0993
 Frc consts  --      5.7756                 5.8311                 6.1748
 IR Inten    --     20.4301               104.3691                16.9832

                    103                    104                    105
                      A                      A                      A
 Frequencies --   3099.8907              3109.2796              3118.4754
 Red. masses --      1.0580                 1.0953                 1.0566
 Frc consts  --      5.9898                 6.2386                 6.0541
 IR Inten    --     19.0067                51.7513                 8.8268

                    106                    107                    108
                      A                      A                      A
 Frequencies --   3171.5208              3174.0280              3181.4693
 Red. masses --      1.1088                 1.0868                 1.0861
 Frc consts  --      6.5711                 6.4510                 6.4768
 IR Inten    --      6.2067                17.0505                 2.1341

                    109                    110                    111
                      A                      A                      A
 Frequencies --   3190.1808              3190.7329              3193.6429
 Red. masses --      1.0902                 1.0857                 1.1110
 Frc consts  --      6.5374                 6.5123                 6.6761
 IR Inten    --     24.5707                 0.2381                 1.9721

                    112                    113                    114
                      A                      A                      A
 Frequencies --   3197.0374              3198.5708              3208.2042
 Red. masses --      1.0939                 1.0894                 1.0978
 Frc consts  --      6.5875                 6.5665                 6.6570
 IR Inten    --     82.6576                24.3823                32.2519

                    115                    116                    117
                      A                      A                      A
 Frequencies --   3211.0392              3219.1007              3224.7320
 Red. masses --      1.0932                 1.0936                 1.0935
 Frc consts  --      6.6410                 6.6768                 6.6994
 IR Inten    --     35.0269                23.5808                14.6639

 - Thermochemistry -
 -------------------
 Temperature   298.150 Kelvin.  Pressure   1.00000 Atm.
 Atom     1 has atomic number  8 and mass  15.99491

 Molecular mass:   348.07281 amu.
 Principal axes and moments of inertia in atomic units:
                           1         2         3
     Eigenvalues --  4337.21192********************
           X            0.99938   0.00422  -0.03495
           Y           -0.00520   0.99959  -0.02824
           Z            0.03482   0.02841   0.99899
 This molecule is an asymmetric top.
 Rotational symmetry number  1.
 Warning -- assumption of classical behavior for rotation
           may cause significant error
 Rotational temperatures (Kelvin)      0.01997     0.00643     0.00580
 Rotational constants (GHZ):           0.41611     0.13403     0.12076
 Zero-point vibrational energy     842576.7 (Joules/Mol)
                                  201.38067 (Kcal/Mol)
 Warning -- explicit consideration of  32 degrees of freedom as
           vibrations may cause significant error
 Vibrational temperatures:     26.94    30.86    48.22    55.21    58.91
          (Kelvin)             74.62    92.86   162.05   188.52   231.00
                              247.44   253.44   309.29   376.33   398.67
                              417.54   428.29   468.81   489.01   524.33
                              543.09   554.83   596.24   597.73   599.95
                              681.59   721.36   733.56   791.30   821.28
                              846.24   864.63   903.67   912.66   918.91
                              988.91  1014.92  1025.30  1028.19  1065.90
                             1105.58  1111.79  1116.03  1175.86  1212.57
                             1245.46  1246.96  1272.59  1323.01  1348.07
                             1354.97  1379.31  1402.99  1418.01  1429.27
                             1439.87  1451.77  1457.11  1461.01  1482.38
                             1509.21  1510.88  1518.23  1532.49  1536.34
                             1562.12  1586.36  1597.62  1600.70  1641.37
                             1685.59  1705.16  1708.56  1721.27  1727.41
                             1737.41  1742.01  1767.79  1780.47  1838.16
                             1869.22  1917.63  1944.38  1946.70  1964.90
                             1994.75  2018.33  2083.05  2109.82  2136.28
                             2152.76  2160.87  2178.46  2189.20  2219.45
                             2352.68  2355.03  2360.43  2385.77  4364.68
                             4381.87  4442.54  4460.05  4473.56  4486.79
                             4563.11  4566.72  4577.42  4589.96  4590.75
                             4594.94  4599.82  4602.03  4615.89  4619.97
                             4631.57  4639.67

 Zero-point correction=                           0.320921 (Hartree/Particle)
 Thermal correction to Energy=                    0.341894
 Thermal correction to Enthalpy=                  0.342838
 Thermal correction to Gibbs Free Energy=         0.267893
 Sum of electronic and zero-point Energies=          -1735.218759
 Sum of electronic and thermal Energies=             -1735.197785
 Sum of electronic and thermal Enthalpies=           -1735.196841
 Sum of electronic and thermal Free Energies=        -1735.271786

                     E (Thermal)             CV                S
                      KCal/Mol        Cal/Mol-Kelvin    Cal/Mol-Kelvin
 Total                  214.542             81.390            157.735
 Electronic               0.000              0.000              0.000
 Translational            0.889              2.981             43.436
 Rotational               0.889              2.981             35.122
 Vibrational            212.764             75.429             79.177
 Vibration     1          0.593              1.986              6.765
 Vibration     2          0.593              1.985              6.495
 Vibration     3          0.594              1.983              5.610
 Vibration     4          0.594              1.982              5.341
 Vibration     5          0.594              1.981              5.213
 Vibration     6          0.596              1.977              4.745
 Vibration     7          0.597              1.971              4.313
 Vibration     8          0.607              1.939              3.223
 Vibration     9          0.612              1.922              2.931
 Vibration    10          0.622              1.891              2.543
 Vibration    11          0.626              1.877              2.414
 Vibration    12          0.628              1.872              2.369
 Vibration    13          0.645              1.818              2.001
 Vibration    14          0.669              1.743              1.651
 Vibration    15          0.678              1.716              1.552
 Vibration    16          0.686              1.692              1.473
 Vibration    17          0.691              1.678              1.430
 Vibration    18          0.710              1.624              1.281
 Vibration    19          0.720              1.596              1.213
 Vibration    20          0.738              1.545              1.103
 Vibration    21          0.748              1.518              1.049
 Vibration    22          0.754              1.501              1.017
 Vibration    23          0.778              1.439              0.911
 Vibration    24          0.779              1.437              0.908
 Vibration    25          0.780              1.433              0.902
 Vibration    26          0.831              1.308              0.727
 Vibration    27          0.857              1.247              0.655
 Vibration    28          0.865              1.228              0.634
 Vibration    29          0.905              1.140              0.544
 Vibration    30          0.927              1.094              0.503
 Vibration    31          0.945              1.057              0.470
 Vibration    32          0.959              1.030              0.448

 Optimization completed.
    -- Stationary point found.
 Normal termination of Gaussian 16 at Mon Sep 21 19:02:36 2020.

 ----------------------------------------------------------------------
 #p b3lyp/6-31G(d) scrf=(iefpcm,read,solvent=water) geom=allcheck guess
 =read
 ----------------------------------------------------------------------

 Structure from the checkpoint file:  "SM36_m1.a.12.pdb.xyz.mst.a.w.chk"
 --------------------
 SM36_m1.a.12.pdb.xyz
 --------------------
 Charge = -1 Multiplicity = 1

 SCF Done:  E(RB3LYP) =  -1735.53969728     A.U. after    6 cycles
 Normal termination of Gaussian 16 at Mon Sep 21 19:03:35 2020.

 -----------------------------
 #p B3LYP/6-31G* geom=allcheck
 -----------------------------

 Structure from the checkpoint file:  "SM36_m1.a.12.pdb.xyz.mst.a.w.chk"
 --------------------
 SM36_m1.a.12.pdb.xyz
 --------------------
 Charge = -1 Multiplicity = 1

 SCF Done:  E(RB3LYP) =  -1735.36507137     A.U. after   15 cycles
 Normal termination of Gaussian 16 at Mon Sep 21 19:05:01 2020.
 Gaussian 16:  ES64L-G16RevB.01 20-Dec-2017

 ----------------------------------------------------------------------
 #p mp2/aug-cc-pVDZ scf=(MaxCycle=2000,NoVarAcc,NoIncFock) maxdisk=120G
 B geom=allcheck
 ----------------------------------------------------------------------

 Structure from the checkpoint file:  "SM36_m1.a.12.pdb.xyz.mst.a.w.chk"
 --------------------
 SM36_m1.a.12.pdb.xyz
 --------------------
 Charge = -1 Multiplicity = 1

                         Standard orientation:
 ---------------------------------------------------------------------
 Center     Atomic      Atomic             Coordinates (Angstroms)
 Number     Number       Type             X           Y           Z
 ---------------------------------------------------------------------
      1          8           0       -1.459356   -0.385560   -2.113778
      2         16           0       -1.511264   -1.109000   -0.801518
      3          7           0       -0.347062   -0.785164    0.216821
      4          6           0        0.277853    0.529623    0.266133
      5          6           0       -0.622314    1.811617    0.175528
      6         16           0        0.597512    2.717136   -0.907622
      7          8           0        1.565291    3.538334   -0.044931
      8          6           0        1.152448    0.938070   -0.970354
      9          6           0        1.084473    0.613469    1.587777
     10          6           0        2.022485   -0.564867    1.931930
     11          6           0        3.207557   -0.777651    1.010511
     12          6           0        4.329771    0.063611    1.076761
     13          6           0        5.423486   -0.126388    0.229560
     14          6           0        5.419158   -1.171448   -0.699439
     15          6           0        4.313081   -2.021674   -0.771055
     16          6           0        3.219842   -1.824207    0.076748
     17          6           0       -3.097483   -0.596039   -0.070240
     18          6           0       -4.137214   -0.160518   -0.897140
     19          6           0       -5.372073    0.177281   -0.337841
     20          6           0       -5.569345    0.075975    1.041708
     21          6           0       -4.527110   -0.361148    1.864724
     22          6           0       -3.290383   -0.697574    1.311215
     23          8           0       -1.625275   -2.592779   -0.920018
     24          1           0       -0.842397    2.344440    1.104855
     25          1           0       -1.535244    1.679376   -0.407934
     26          1           0        2.235888    0.838363   -0.894834
     27          1           0        0.780784    0.506099   -1.900838
     28          1           0        0.352251    0.689104    2.403073
     29          1           0        1.650276    1.552632    1.585978
     30          1           0        1.431075   -1.483550    1.980296
     31          1           0        2.397720   -0.380233    2.947341
     32          1           0        4.346957    0.874409    1.802168
     33          1           0        6.281997    0.536742    0.299160
     34          1           0        6.271060   -1.323267   -1.356788
     35          1           0        4.300082   -2.840066   -1.486387
     36          1           0        2.357712   -2.483156    0.009297
     37          1           0       -3.973665   -0.077270   -1.966250
     38          1           0       -6.178016    0.521366   -0.980149
     39          1           0       -6.529753    0.340748    1.474929
     40          1           0       -4.675076   -0.436077    2.938459
     41          1           0       -2.472847   -1.022432    1.946778
 ---------------------------------------------------------------------

 SCF Done:  E(RHF) =  -1728.32089641     A.U. after   17 cycles
 E2 =    -0.3462296175D+01 EUMP2 =    -0.17317831925803D+04

 The electronic state is 1-A.
 Alpha  occ. eigenvalues --  -92.05558 -91.94522 -20.39769 -20.39539 -20.38522
 Alpha  occ. eigenvalues --  -15.38485 -11.17258 -11.15992 -11.15787 -11.15617
 Alpha  occ. eigenvalues --  -11.15594 -11.15341 -11.15207 -11.15148 -11.15127
 Alpha  occ. eigenvalues --  -11.15034 -11.15009 -11.14712 -11.14534 -11.13976
 Alpha  occ. eigenvalues --  -11.13663 -11.12799 -11.11937  -9.02221  -8.93435
 Alpha  occ. eigenvalues --   -6.70784  -6.70694  -6.70650  -6.61663  -6.61527
 Alpha  occ. eigenvalues --   -6.61408  -1.27881  -1.20025  -1.15640  -1.06876
 Alpha  occ. eigenvalues --   -1.06333  -1.05763  -0.97425  -0.95805  -0.93080
 Alpha  occ. eigenvalues --   -0.92776  -0.92080  -0.88907  -0.81584  -0.80179
 Alpha  occ. eigenvalues --   -0.75885  -0.73833  -0.73342  -0.72425  -0.68803
 Alpha  occ. eigenvalues --   -0.67538  -0.62752  -0.60375  -0.59566  -0.56057
 Alpha  occ. eigenvalues --   -0.54437  -0.54189  -0.53940  -0.52597  -0.52065
 Alpha  occ. eigenvalues --   -0.51356  -0.50099  -0.49779  -0.49131  -0.48160
 Alpha  occ. eigenvalues --   -0.46841  -0.46354  -0.45491  -0.44712  -0.43061
 Alpha  occ. eigenvalues --   -0.42232  -0.41528  -0.41254  -0.40563  -0.40429
 Alpha  occ. eigenvalues --   -0.39834  -0.38896  -0.37771  -0.36596  -0.35773
 Alpha  occ. eigenvalues --   -0.34697  -0.33097  -0.31512  -0.29540  -0.28013
 Alpha  occ. eigenvalues --   -0.26856  -0.24772  -0.24560  -0.24301  -0.23575
 Alpha  occ. eigenvalues --   -0.21882  -0.21348
 Alpha virt. eigenvalues --    0.09578   0.09968   0.10551   0.11023   0.11463
 Alpha virt. eigenvalues --    0.11957   0.12654   0.13189   0.13908   0.14228
 Alpha virt. eigenvalues --    0.14830   0.15290   0.15371   0.16003   0.16762

 Mulliken charges:
               1
     1  O   -1.369433
     2  S    2.919505
     3  N   -1.846933
     4  C    0.721518
     5  C    0.582248
     6  S    1.472295
     7  O   -1.307855
     8  C    0.338529
     9  C    0.177123
    10  C    0.415322
    11  C    0.946498
    12  C    0.442978
    13  C    0.128479
    14  C    0.712312
    15  C   -0.001598
    16  C    0.746089
    17  C    0.746451
    18  C    0.101475
    19  C    0.427215
    20  C    0.697745
    21  C    0.255852
    22  C    0.394860
    23  O   -1.303925
    24  H   -0.337677
    25  H   -0.222669
    26  H   -0.319311
    27  H   -0.299754
    28  H   -0.188451
    29  H   -0.106603
    30  H   -0.180193
    31  H   -0.155237
    32  H   -0.674385
    33  H   -0.492392
    34  H   -0.466551
    35  H   -0.496103
    36  H   -0.687826
    37  H   -0.617248
    38  H   -0.479865
    39  H   -0.465113
    40  H   -0.507650
    41  H   -0.699726
 Sum of Mulliken charges =  -1.00000

 Dipole moment (field-independent basis, Debye):
    X=             -0.2839    Y=              1.0296    Z=              3.6608  Tot=              3.8134
 Quadrupole moment (field-independent basis, Debye-Ang):
   XX=           -173.9816   YY=           -199.7948   ZZ=           -160.6219
   XY=            -19.0470   XZ=             -9.8332   YZ=             -3.2428

 Normal termination of Gaussian 16 at Mon Sep 21 22:00:28 2020.
