 Gaussian 16, Revision B.01,

 ----------------------------------------------------------------------
 #p b3lyp/6-31G(d) opt freq NoSymm scf=(MaxCycle=2000,NoVarAcc,NoIncFoc
 k) scrf=(iefpcm,read,solvent=water)
 ----------------------------------------------------------------------

 -------------------
 SM36_m0.n.1.pdb.xyz
 -------------------
 Symbolic Z-matrix:
 Charge =  0 Multiplicity = 1

 SCF Done:  E(RB3LYP) =  -1735.93857476     A.U. after   13 cycles
 SCF Done:  E(RB3LYP) =  -1735.93856743     A.U. after    8 cycles
 SCF Done:  E(RB3LYP) =  -1735.93860544     A.U. after    9 cycles
 SCF Done:  E(RB3LYP) =  -1735.93858059     A.U. after    8 cycles
 SCF Done:  E(RB3LYP) =  -1735.93857803     A.U. after    7 cycles
 SCF Done:  E(RB3LYP) =  -1735.93858269     A.U. after    7 cycles
 SCF Done:  E(RB3LYP) =  -1735.93858217     A.U. after    6 cycles
 SCF Done:  E(RB3LYP) =  -1735.93858170     A.U. after    7 cycles
 Optimization completed.
    -- Stationary point found.
 Normal termination of Gaussian 16 at Mon Sep 21 18:47:00 2020.

 --------------------------------------------------------------------
 #P Geom=AllCheck Guess=TCheck SCRF=Check GenChk RB3LYP/6-31G(d) Freq
 --------------------------------------------------------------------

 Structure from the checkpoint file:  "SM36_m0.n.1.pdb.xyz.mst.n.w.chk"
 -------------------
 SM36_m0.n.1.pdb.xyz
 -------------------
 Charge =  0 Multiplicity = 1

 SCF Done:  E(RB3LYP) =  -1735.93858170     A.U. after    1 cycles

  Exact polarizability: 311.590 -26.990 310.500 -30.381 -52.729 259.244
 Approx polarizability: 357.630 -30.169 348.125 -35.997 -55.006 306.879

                      1                      2                      3
                      A                      A                      A
 Frequencies --     14.3350                24.8431                30.8060
 Red. masses --      5.7441                 4.0003                 6.1613
 Frc consts  --      0.0007                 0.0015                 0.0034
 IR Inten    --      1.3710                 0.2302                 0.5759

                      4                      5                      6
                      A                      A                      A
 Frequencies --     43.7121                49.5598                58.0436
 Red. masses --      6.2224                 4.3624                 3.8767
 Frc consts  --      0.0070                 0.0063                 0.0077
 IR Inten    --      0.9636                 0.6741                 0.1323

                      7                      8                      9
                      A                      A                      A
 Frequencies --     77.8901               109.4103               128.2481
 Red. masses --      9.2552                 6.5280                 5.6678
 Frc consts  --      0.0331                 0.0460                 0.0549
 IR Inten    --     13.2117                 1.2300                11.0059

                     10                     11                     12
                      A                      A                      A
 Frequencies --    158.4790               175.8005               199.2672
 Red. masses --      6.1664                 5.8362                 5.1067
 Frc consts  --      0.0912                 0.1063                 0.1195
 IR Inten    --      2.3595                 3.9480                 6.3881

                     13                     14                     15
                      A                      A                      A
 Frequencies --    216.1701               248.3622               257.9774
 Red. masses --      4.6715                 3.8218                 8.1712
 Frc consts  --      0.1286                 0.1389                 0.3204
 IR Inten    --      8.1319                 7.0300                 5.2098

                     16                     17                     18
                      A                      A                      A
 Frequencies --    283.1162               306.2718               315.5809
 Red. masses --      3.9881                 6.0740                 2.5002
 Frc consts  --      0.1883                 0.3357                 0.1467
 IR Inten    --      5.6121                11.2887                 0.8065

                     19                     20                     21
                      A                      A                      A
 Frequencies --    334.5393               349.3707               381.8842
 Red. masses --      3.7222                 2.1750                 3.1082
 Frc consts  --      0.2454                 0.1564                 0.2671
 IR Inten    --     10.1419                 8.7071                27.4267

                     22                     23                     24
                      A                      A                      A
 Frequencies --    403.8204               413.5513               418.0048
 Red. masses --      3.2242                 2.9981                 2.9607
 Frc consts  --      0.3098                 0.3021                 0.3048
 IR Inten    --      7.3565                 0.7848                 6.5160

                     25                     26                     27
                      A                      A                      A
 Frequencies --    420.9946               428.6146               477.4162
 Red. masses --      2.8319                 2.4818                 2.9915
 Frc consts  --      0.2957                 0.2686                 0.4017
 IR Inten    --     18.1476                77.9725                91.6325

                     28                     29                     30
                      A                      A                      A
 Frequencies --    488.3073               512.0098               546.8641
 Red. masses --      3.4227                 3.9793                 9.4058
 Frc consts  --      0.4808                 0.6146                 1.6573
 IR Inten    --     25.2529                17.6823               115.8288

                     31                     32                     33
                      A                      A                      A
 Frequencies --    569.2077               580.9978               590.5858
 Red. masses --      4.0397                 4.1284                 4.7748
 Frc consts  --      0.7712                 0.8211                 0.9812
 IR Inten    --     50.2666               145.6604                59.0999

                     34                     35                     36
                      A                      A                      A
 Frequencies --    625.4305               634.0863               639.1467
 Red. masses --      6.4183                 6.3984                 4.3972
 Frc consts  --      1.4792                 1.5157                 1.0583
 IR Inten    --      0.3440                 0.4553                16.2722

                     37                     38                     39
                      A                      A                      A
 Frequencies --    698.0310               713.0742               714.1214
 Red. masses --      2.5370                 2.6127                 3.8560
 Frc consts  --      0.7283                 0.7827                 1.1586
 IR Inten    --     47.8499                 6.2674                 8.2664

                     40                     41                     42
                      A                      A                      A
 Frequencies --    717.6432               739.6161               767.1976
 Red. masses --      4.5631                 1.7668                 1.4785
 Frc consts  --      1.3846                 0.5695                 0.5127
 IR Inten    --     23.5500                63.9657                34.3716

                     43                     44                     45
                      A                      A                      A
 Frequencies --    772.7424               793.6458               822.5761
 Red. masses --      2.0012                 3.8264                 1.8059
 Frc consts  --      0.7041                 1.4200                 0.7199
 IR Inten    --     45.8362                 6.3642                50.1841

                     46                     47                     48
                      A                      A                      A
 Frequencies --    847.6931               862.2965               866.6140
 Red. masses --      3.0030                 1.2452                 1.2507
 Frc consts  --      1.2714                 0.5455                 0.5534
 IR Inten    --    124.9270                 0.7201                 0.5621

                     49                     50                     51
                      A                      A                      A
 Frequencies --    902.4825               918.0272               940.6016
 Red. masses --      2.6311                 1.4811                 1.9220
 Frc consts  --      1.2626                 0.7354                 1.0019
 IR Inten    --     88.7156                16.1687                53.8898

                     52                     53                     54
                      A                      A                      A
 Frequencies --    949.6079               965.0438               978.6998
 Red. masses --      1.3138                 2.3768                 1.3559
 Frc consts  --      0.6980                 1.3042                 0.7652
 IR Inten    --      4.0301               136.0222                 0.9730

                     55                     56                     57
                      A                      A                      A
 Frequencies --    986.8653               992.0766              1004.4050
 Red. masses --      2.2711                 1.3531                 1.2536
 Frc consts  --      1.3032                 0.7846                 0.7451
 IR Inten    --     40.7416                 0.4124                 0.5134

                     58                     59                     60
                      A                      A                      A
 Frequencies --   1013.9722              1016.2393              1018.4969
 Red. masses --      6.3783                 6.0625                 1.2816
 Frc consts  --      3.8637                 3.6889                 0.7833
 IR Inten    --     10.2523                 0.3112                 0.1717

                     61                     62                     63
                      A                      A                      A
 Frequencies --   1040.1097              1047.5134              1057.1918
 Red. masses --      3.3751                 3.1197                 1.3114
 Frc consts  --      2.1513                 2.0169                 0.8636
 IR Inten    --    109.4068                19.2614                 0.9655

                     64                     65                     66
                      A                      A                      A
 Frequencies --   1059.3468              1074.2732              1078.7733
 Red. masses --      2.2895                 3.0584                 3.2716
 Frc consts  --      1.5138                 2.0796                 2.2432
 IR Inten    --      8.1958               252.2373                31.3324

                     67                     68                     69
                      A                      A                      A
 Frequencies --   1096.1908              1110.3399              1113.5031
 Red. masses --      1.8790                 1.6017                 2.4084
 Frc consts  --      1.3303                 1.1635                 1.7594
 IR Inten    --     14.8440                18.5444                28.8526

                     70                     71                     72
                      A                      A                      A
 Frequencies --   1128.7739              1143.1195              1190.1799
 Red. masses --      3.7821                 1.9614                 1.0954
 Frc consts  --      2.8392                 1.5101                 0.9142
 IR Inten    --    199.8284                36.2061                 0.1934

                     73                     74                     75
                      A                      A                      A
 Frequencies --   1190.4303              1198.1453              1208.9639
 Red. masses --      1.0951                 1.2896                 1.1596
 Frc consts  --      0.9144                 1.0908                 0.9986
 IR Inten    --      0.3653                 1.4885                 0.8466

                     76                     77                     78
                      A                      A                      A
 Frequencies --   1209.9424              1222.8445              1229.1812
 Red. masses --      1.1576                 1.3848                 2.3235
 Frc consts  --      0.9984                 1.2201                 2.0684
 IR Inten    --      0.3046                21.0340                 8.3697

                     79                     80                     81
                      A                      A                      A
 Frequencies --   1240.7187              1250.8900              1283.3917
 Red. masses --      1.7345                 1.8503                 4.0937
 Frc consts  --      1.5731                 1.7058                 3.9727
 IR Inten    --     81.8834                40.6559               253.2032

                     82                     83                     84
                      A                      A                      A
 Frequencies --   1320.8083              1345.1656              1348.1521
 Red. masses --      1.5834                 1.5039                 2.1668
 Frc consts  --      1.6275                 1.6033                 2.3203
 IR Inten    --     93.0771                 2.8007                 4.7248

                     85                     86                     87
                      A                      A                      A
 Frequencies --   1363.1678              1366.0633              1401.3143
 Red. masses --      4.6635                 2.0589                 1.3989
 Frc consts  --      5.1057                 2.2638                 1.6185
 IR Inten    --      4.9216                 0.3093                 1.4979

                     88                     89                     90
                      A                      A                      A
 Frequencies --   1414.9524              1447.9019              1454.3573
 Red. masses --      1.3760                 1.2002                 1.1185
 Frc consts  --      1.6232                 1.4825                 1.3938
 IR Inten    --      5.0626                51.3115                36.2601

                     91                     92                     93
                      A                      A                      A
 Frequencies --   1476.7454              1490.4899              1491.2503
 Red. masses --      1.1397                 1.1711                 2.1614
 Frc consts  --      1.4644                 1.5329                 2.8320
 IR Inten    --      8.6691                 5.3021                25.0651

                     94                     95                     96
                      A                      A                      A
 Frequencies --   1501.6599              1522.7073              1525.3403
 Red. masses --      1.9090                 1.0904                 2.0349
 Frc consts  --      2.5363                 1.4896                 2.7895
 IR Inten    --      9.3712                 7.6820                 4.7725

                     97                     98                     99
                      A                      A                      A
 Frequencies --   1545.1150              1642.2590              1642.3188
 Red. masses --      2.2232                 5.4629                 5.5236
 Frc consts  --      3.1272                 8.6807                 8.7778
 IR Inten    --     20.5659                 0.2375                 3.9937

                    100                    101                    102
                      A                      A                      A
 Frequencies --   1643.2125              1663.1944              3044.9810
 Red. masses --      5.6983                 5.6556                 1.0657
 Frc consts  --      9.0653                 9.2175                 5.8219
 IR Inten    --      1.4007                13.5841                44.7220

                    103                    104                    105
                      A                      A                      A
 Frequencies --   3070.7932              3091.2370              3121.7481
 Red. masses --      1.0656                 1.0945                 1.0991
 Frc consts  --      5.9203                 6.1622                 6.3106
 IR Inten    --     12.2488                54.8136                12.7323

                    106                    107                    108
                      A                      A                      A
 Frequencies --   3127.2993              3132.2201              3192.4490
 Red. masses --      1.0583                 1.0581                 1.0864
 Frc consts  --      6.0981                 6.1163                 6.5235
 IR Inten    --     13.7029                 5.9744                18.2794

                    109                    110                    111
                      A                      A                      A
 Frequencies --   3195.4570              3199.3021              3206.5231
 Red. masses --      1.0866                 1.1102                 1.0901
 Frc consts  --      6.5371                 6.6952                 6.6035
 IR Inten    --      7.1636                 3.4465                12.1204

                    112                    113                    114
                      A                      A                      A
 Frequencies --   3206.6843              3211.4591              3212.7329
 Red. masses --      1.1097                 1.0941                 1.0870
 Frc consts  --      6.7233                 6.6482                 6.6102
 IR Inten    --      3.0727                78.1558                 2.4770

                    115                    116                    117
                      A                      A                      A
 Frequencies --   3224.6070              3225.4802              3231.3393
 Red. masses --      1.0900                 1.0974                 1.0933
 Frc consts  --      6.6777                 6.7264                 6.7258
 IR Inten    --     23.2606                31.6203                18.4161

                    118                    119                    120
                      A                      A                      A
 Frequencies --   3242.5788              3250.3493              3520.5623
 Red. masses --      1.0952                 1.0930                 1.0763
 Frc consts  --      6.7849                 6.8037                 7.8597
 IR Inten    --      9.4878                 5.6788               157.6560

 - Thermochemistry -
 -------------------
 Temperature   298.150 Kelvin.  Pressure   1.00000 Atm.
 Atom     1 has atomic number  8 and mass  15.99491

 Molecular mass:   349.08064 amu.
 Principal axes and moments of inertia in atomic units:
                           1         2         3
     Eigenvalues --  7671.757538418.11952**********
           X            0.98681   0.16173  -0.00691
           Y           -0.16185   0.98650  -0.02477
           Z            0.00281   0.02556   0.99967
 This molecule is an asymmetric top.
 Rotational symmetry number  1.
 Warning -- assumption of classical behavior for rotation
           may cause significant error
 Rotational temperatures (Kelvin)      0.01129     0.01029     0.00684
 Rotational constants (GHZ):           0.23524     0.21439     0.14250
 Zero-point vibrational energy     879268.9 (Joules/Mol)
                                  210.15031 (Kcal/Mol)
 Warning -- explicit consideration of  33 degrees of freedom as
           vibrations may cause significant error
 Vibrational temperatures:     20.62    35.74    44.32    62.89    71.31
          (Kelvin)             83.51   112.07   157.42   184.52   228.02
                              252.94   286.70   311.02   357.34   371.17
                              407.34   440.66   454.05   481.33   502.67
                              549.45   581.01   595.01   601.42   605.72
                              616.68   686.90   702.57   736.67   786.82
                              818.96   835.93   849.72   899.85   912.31
                              919.59  1004.31  1025.95  1027.46  1032.53
                             1064.14  1103.83  1111.80  1141.88  1183.50
                             1219.64  1240.65  1246.86  1298.47  1320.84
                             1353.32  1366.27  1388.48  1408.13  1419.88
                             1427.38  1445.11  1458.88  1462.14  1465.39
                             1496.49  1507.14  1521.06  1524.16  1545.64
                             1552.11  1577.17  1597.53  1602.08  1624.05
                             1644.69  1712.40  1712.76  1723.86  1739.43
                             1740.84  1759.40  1768.52  1785.12  1799.75
                             1846.51  1900.35  1935.39  1939.69  1961.29
                             1965.46  2016.18  2035.80  2083.21  2092.50
                             2124.71  2144.48  2145.58  2160.55  2190.84
                             2194.62  2223.08  2362.84  2362.93  2364.22
                             2392.97  4381.05  4418.19  4447.60  4491.50
                             4499.49  4506.57  4593.22  4597.55  4603.08
                             4613.47  4613.70  4620.57  4622.41  4639.49
                             4640.75  4649.18  4665.35  4676.53  5065.30

 Zero-point correction=                           0.334896 (Hartree/Particle)
 Thermal correction to Energy=                    0.356091
 Thermal correction to Enthalpy=                  0.357035
 Thermal correction to Gibbs Free Energy=         0.282075
 Sum of electronic and zero-point Energies=          -1735.603686
 Sum of electronic and thermal Energies=             -1735.582491
 Sum of electronic and thermal Enthalpies=           -1735.581547
 Sum of electronic and thermal Free Energies=        -1735.656507

                     E (Thermal)             CV                S
                      KCal/Mol        Cal/Mol-Kelvin    Cal/Mol-Kelvin
 Total                  223.450             82.633            157.766
 Electronic               0.000              0.000              0.000
 Translational            0.889              2.981             43.444
 Rotational               0.889              2.981             35.057
 Vibrational            221.673             76.672             79.264
 Vibration     1          0.593              1.986              7.296
 Vibration     2          0.593              1.985              6.204
 Vibration     3          0.594              1.984              5.777
 Vibration     4          0.595              1.980              5.083
 Vibration     5          0.595              1.978              4.835
 Vibration     6          0.596              1.974              4.523
 Vibration     7          0.599              1.964              3.943
 Vibration     8          0.606              1.942              3.279
 Vibration     9          0.611              1.925              2.972
 Vibration    10          0.621              1.893              2.568
 Vibration    11          0.628              1.872              2.373
 Vibration    12          0.637              1.841              2.140
 Vibration    13          0.645              1.816              1.991
 Vibration    14          0.662              1.765              1.742
 Vibration    15          0.667              1.749              1.675
 Vibration    16          0.682              1.705              1.515
 Vibration    17          0.697              1.662              1.382
 Vibration    18          0.703              1.644              1.333
 Vibration    19          0.716              1.607              1.238
 Vibration    20          0.727              1.577              1.169
 Vibration    21          0.751              1.509              1.032
 Vibration    22          0.769              1.462              0.949
 Vibration    23          0.777              1.441              0.914
 Vibration    24          0.781              1.431              0.899
 Vibration    25          0.783              1.425              0.889
 Vibration    26          0.790              1.408              0.863
 Vibration    27          0.834              1.300              0.717
 Vibration    28          0.844              1.276              0.688
 Vibration    29          0.867              1.223              0.629
 Vibration    30          0.902              1.147              0.551
 Vibration    31          0.925              1.098              0.506
 Vibration    32          0.938              1.072              0.484
 Vibration    33          0.948              1.052              0.466

                           ! Non-Optimized Parameters !
 Normal termination of Gaussian 16 at Mon Sep 21 19:12:10 2020.

 ----------------------------------------------------------------------
 #p b3lyp/6-31G(d) scrf=(iefpcm,read,solvent=water) geom=allcheck guess
 =read
 ----------------------------------------------------------------------

 Structure from the checkpoint file:  "SM36_m0.n.1.pdb.xyz.mst.n.w.chk"
 -------------------
 SM36_m0.n.1.pdb.xyz
 -------------------
 Charge =  0 Multiplicity = 1

 SCF Done:  E(RB3LYP) =  -1735.93857174     A.U. after    7 cycles
 Normal termination of Gaussian 16 at Mon Sep 21 19:13:20 2020.

 -----------------------------
 #p B3LYP/6-31G* geom=allcheck
 -----------------------------

 Structure from the checkpoint file:  "SM36_m0.n.1.pdb.xyz.mst.n.w.chk"
 -------------------
 SM36_m0.n.1.pdb.xyz
 -------------------
 Charge =  0 Multiplicity = 1

 SCF Done:  E(RB3LYP) =  -1735.91402114     A.U. after   15 cycles
 Normal termination of Gaussian 16 at Mon Sep 21 19:14:44 2020.
 Gaussian 16:  ES64L-G16RevB.01 20-Dec-2017

 ----------------------------------------------------------------------
 #p mp2/aug-cc-pVDZ scf=(MaxCycle=2000,NoVarAcc,NoIncFock) maxdisk=120G
 B geom=allcheck
 ----------------------------------------------------------------------

 Structure from the checkpoint file:  "SM36_m0.n.1.pdb.xyz.mst.n.w.chk"
 -------------------
 SM36_m0.n.1.pdb.xyz
 -------------------
 Charge =  0 Multiplicity = 1

                         Standard orientation:
 ---------------------------------------------------------------------
 Center     Atomic      Atomic             Coordinates (Angstroms)
 Number     Number       Type             X           Y           Z
 ---------------------------------------------------------------------
      1          8           0       -0.059998    1.386558    2.633727
      2         16           0        0.827213    0.989234    1.526801
      3          7           0        0.106224   -0.367864    0.866817
      4          6           0        0.833419   -1.442279    0.177148
      5          6           0        1.971203   -2.164361    0.952587
      6         16           0        3.040606   -2.257261   -0.576070
      7          8           0        2.745890   -3.547871   -1.337829
      8          6           0        1.743956   -0.974189   -0.982137
      9          6           0       -0.189821   -2.492556   -0.302104
     10          6           0       -1.275601   -2.013396   -1.282504
     11          6           0       -2.493317   -1.345331   -0.674312
     12          6           0       -2.985038   -0.146143   -1.206051
     13          6           0       -4.134990    0.454763   -0.688753
     14          6           0       -4.815904   -0.137572    0.376178
     15          6           0       -4.339515   -1.336086    0.912445
     16          6           0       -3.192621   -1.932634    0.388723
     17          6           0        0.734498    2.231514    0.244643
     18          6           0       -0.503421    2.546658   -0.321104
     19          6           0       -0.566832    3.566409   -1.267418
     20          6           0        0.590872    4.260242   -1.634233
     21          6           0        1.819525    3.937265   -1.054818
     22          6           0        1.897285    2.917842   -0.104339
     23          8           0        2.257815    0.763172    1.802998
     24          1           0       -0.619854   -0.696451    1.503647
     25          1           0        1.744624   -3.143664    1.376828
     26          1           0        2.475550   -1.523862    1.675110
     27          1           0        1.351070   -1.055949   -1.995944
     28          1           0        2.197090    0.005649   -0.831889
     29          1           0       -0.651980   -2.950165    0.579945
     30          1           0        0.402694   -3.277102   -0.781817
     31          1           0       -1.612646   -2.896327   -1.839788
     32          1           0       -0.835473   -1.343005   -2.028345
     33          1           0       -2.458059    0.318662   -2.034352
     34          1           0       -4.496582    1.384183   -1.117595
     35          1           0       -5.708314    0.327386    0.782181
     36          1           0       -4.863014   -1.809639    1.736920
     37          1           0       -2.839334   -2.868636    0.810695
     38          1           0       -1.394979    1.999828   -0.038525
     39          1           0       -1.519326    3.818926   -1.719612
     40          1           0        0.532929    5.052340   -2.372975
     41          1           0        2.716959    4.475743   -1.338479
     42          1           0        2.838122    2.649823    0.359711
 ---------------------------------------------------------------------

 SCF Done:  E(RHF) =  -1728.86620215     A.U. after   16 cycles
 E2 =    -0.3448407718D+01 EUMP2 =    -0.17323146098655D+04

 The electronic state is 1-A.
 Alpha  occ. eigenvalues --  -92.23602 -92.07836 -20.56974 -20.56389 -20.52103
 Alpha  occ. eigenvalues --  -15.62079 -11.32664 -11.29605 -11.28363 -11.28099
 Alpha  occ. eigenvalues --  -11.28072 -11.27803 -11.27480 -11.27189 -11.27125
 Alpha  occ. eigenvalues --  -11.26143 -11.25518 -11.25470 -11.25415 -11.25329
 Alpha  occ. eigenvalues --  -11.25007 -11.24999 -11.24985  -9.20386  -9.06652
 Alpha  occ. eigenvalues --   -6.88929  -6.88880  -6.88770  -6.74861  -6.74738
 Alpha  occ. eigenvalues --   -6.74609  -1.46574  -1.34475  -1.32882  -1.26053
 Alpha  occ. eigenvalues --   -1.19162  -1.16911  -1.13646  -1.07887  -1.06686
 Alpha  occ. eigenvalues --   -1.05220  -1.02765  -1.01198  -0.95895  -0.94090
 Alpha  occ. eigenvalues --   -0.90816  -0.86465  -0.85932  -0.83885  -0.82909
 Alpha  occ. eigenvalues --   -0.80550  -0.77569  -0.74856  -0.71825  -0.70867
 Alpha  occ. eigenvalues --   -0.70566  -0.68689  -0.66672  -0.66416  -0.64918
 Alpha  occ. eigenvalues --   -0.64787  -0.63696  -0.63499  -0.62247  -0.61708
 Alpha  occ. eigenvalues --   -0.61098  -0.60380  -0.59762  -0.58188  -0.56012
 Alpha  occ. eigenvalues --   -0.55490  -0.54682  -0.54439  -0.54061  -0.53517
 Alpha  occ. eigenvalues --   -0.52947  -0.52598  -0.51323  -0.50499  -0.50137
 Alpha  occ. eigenvalues --   -0.49424  -0.49224  -0.48425  -0.47686  -0.46198
 Alpha  occ. eigenvalues --   -0.43754  -0.40197  -0.37408  -0.36797  -0.36490
 Alpha  occ. eigenvalues --   -0.34889  -0.33609
 Alpha virt. eigenvalues --    0.02332   0.03061   0.03433   0.03944   0.04213
 Alpha virt. eigenvalues --    0.04645   0.05253   0.05607   0.06046   0.06092
 Alpha virt. eigenvalues --    0.06341   0.07027   0.07241   0.07542   0.08115

 Mulliken charges:
               1
     1  O   -1.180916
     2  S    2.873506
     3  N   -0.845134
     4  C   -0.174930
     5  C    0.485152
     6  S    1.518290
     7  O   -1.252399
     8  C    0.518830
     9  C    0.747475
    10  C    0.309909
    11  C    0.448008
    12  C    0.846729
    13  C    0.201772
    14  C    0.652145
    15  C    0.172095
    16  C    0.701255
    17  C    0.469701
    18  C    0.700105
    19  C    0.263065
    20  C    0.596408
    21  C    0.388433
    22  C    0.525008
    23  O   -1.280059
    24  H   -0.107157
    25  H   -0.340005
    26  H   -0.256410
    27  H   -0.281041
    28  H   -0.267881
    29  H   -0.184231
    30  H   -0.060004
    31  H   -0.058016
    32  H   -0.387063
    33  H   -0.730329
    34  H   -0.531452
    35  H   -0.474991
    36  H   -0.519439
    37  H   -0.726232
    38  H   -0.651036
    39  H   -0.529730
    40  H   -0.462849
    41  H   -0.472174
    42  H   -0.644408
 Sum of Mulliken charges =  -0.00000

 Dipole moment (field-independent basis, Debye):
    X=             -3.1984    Y=              3.3595    Z=             -2.4699  Tot=              5.2551
 Quadrupole moment (field-independent basis, Debye-Ang):
   XX=           -154.2420   YY=           -154.0482   ZZ=           -162.2638
   XY=             13.8226   XZ=              0.0365   YZ=            -27.2663

 Normal termination of Gaussian 16 at Mon Sep 21 22:22:08 2020.
