 Gaussian 16, Revision B.01,

 ----------------------------------------------------------------------
 #p b3lyp/6-31G(d) opt freq NoSymm scf=(MaxCycle=2000,NoVarAcc,NoIncFoc
 k) scrf=(iefpcm,read,solvent=water)
 ----------------------------------------------------------------------

 -------------------
 SM36_m1.a.2.pdb.xyz
 -------------------
 Symbolic Z-matrix:
 Charge = -1 Multiplicity = 1

 SCF Done:  E(RB3LYP) =  -1735.52092032     A.U. after   13 cycles
 SCF Done:  E(RB3LYP) =  -1735.53179504     A.U. after   12 cycles
 SCF Done:  E(RB3LYP) =  -1735.53301734     A.U. after   13 cycles
 SCF Done:  E(RB3LYP) =  -1735.53558894     A.U. after   11 cycles
 SCF Done:  E(RB3LYP) =  -1735.53619730     A.U. after   10 cycles
 SCF Done:  E(RB3LYP) =  -1735.53603590     A.U. after   10 cycles
 SCF Done:  E(RB3LYP) =  -1735.53650998     A.U. after   11 cycles
 SCF Done:  E(RB3LYP) =  -1735.53662807     A.U. after   11 cycles
 SCF Done:  E(RB3LYP) =  -1735.53677690     A.U. after   10 cycles
 SCF Done:  E(RB3LYP) =  -1735.53691521     A.U. after   11 cycles
 SCF Done:  E(RB3LYP) =  -1735.53702878     A.U. after    8 cycles
 SCF Done:  E(RB3LYP) =  -1735.53703118     A.U. after    7 cycles
 SCF Done:  E(RB3LYP) =  -1735.53703038     A.U. after    8 cycles
 SCF Done:  E(RB3LYP) =  -1735.53703069     A.U. after    7 cycles
 SCF Done:  E(RB3LYP) =  -1735.53703050     A.U. after    7 cycles
 SCF Done:  E(RB3LYP) =  -1735.53703049     A.U. after    6 cycles
 Optimization completed.
    -- Stationary point found.
 Normal termination of Gaussian 16 at Mon Sep 21 06:35:06 2020.

 --------------------------------------------------------------------
 #P Geom=AllCheck Guess=TCheck SCRF=Check GenChk RB3LYP/6-31G(d) Freq
 --------------------------------------------------------------------

 Structure from the checkpoint file:  "SM36_m1.a.2.pdb.xyz.mst.a.w.chk"
 -------------------
 SM36_m1.a.2.pdb.xyz
 -------------------
 Charge = -1 Multiplicity = 1

 SCF Done:  E(RB3LYP) =  -1735.53703049     A.U. after    1 cycles

  Exact polarizability: 300.727  11.549 297.376  -8.603  -8.691 307.440
 Approx polarizability: 320.472  14.454 335.816  -9.490  -6.290 376.487

                      1                      2                      3
                      A                      A                      A
 Frequencies --     15.9209                23.3506                32.6314
 Red. masses --      4.6338                 6.4800                 5.3174
 Frc consts  --      0.0007                 0.0021                 0.0033
 IR Inten    --      0.2797                 4.5892                 1.5795

                      4                      5                      6
                      A                      A                      A
 Frequencies --     38.9711                51.7656                58.3584
 Red. masses --      4.6761                 5.4114                 4.3689
 Frc consts  --      0.0042                 0.0085                 0.0088
 IR Inten    --      1.2764                 0.4119                 0.2355

                      7                      8                      9
                      A                      A                      A
 Frequencies --     82.4215               106.2804               114.1260
 Red. masses --      6.5592                 5.6532                 7.7028
 Frc consts  --      0.0263                 0.0376                 0.0591
 IR Inten    --     13.6536                 3.8779                 3.2175

                     10                     11                     12
                      A                      A                      A
 Frequencies --    149.0917               167.7226               206.8955
 Red. masses --      5.7645                 4.1750                 5.2690
 Frc consts  --      0.0755                 0.0692                 0.1329
 IR Inten    --      3.5117                 7.7659                 0.1550

                     13                     14                     15
                      A                      A                      A
 Frequencies --    229.5643               234.8274               254.8379
 Red. masses --      5.0952                 4.0685                 9.3070
 Frc consts  --      0.1582                 0.1322                 0.3561
 IR Inten    --     25.5935                 6.2338                 4.2442

                     16                     17                     18
                      A                      A                      A
 Frequencies --    294.2187               299.0580               320.4724
 Red. masses --      6.8716                 3.0699                 2.6263
 Frc consts  --      0.3505                 0.1618                 0.1589
 IR Inten    --      9.0965                 3.9149                 2.0986

                     19                     20                     21
                      A                      A                      A
 Frequencies --    331.5952               347.8092               379.9559
 Red. masses --      3.5898                 3.9439                 2.6052
 Frc consts  --      0.2326                 0.2811                 0.2216
 IR Inten    --      1.1131                18.7366                 3.9429

                     22                     23                     24
                      A                      A                      A
 Frequencies --    397.3755               408.8004               414.0264
 Red. masses --      6.3060                 3.1154                 2.9841
 Frc consts  --      0.5867                 0.3068                 0.3014
 IR Inten    --     18.7944                 5.6062                 0.1383

                     25                     26                     27
                      A                      A                      A
 Frequencies --    416.7995               484.3616               490.7089
 Red. masses --      2.9931                 3.4607                 6.1491
 Frc consts  --      0.3064                 0.4784                 0.8724
 IR Inten    --      0.3167                 7.6132                11.0120

                     28                     29                     30
                      A                      A                      A
 Frequencies --    514.3314               558.3504               568.4720
 Red. masses --      3.9121                 5.7584                 8.6405
 Frc consts  --      0.6097                 1.0577                 1.6452
 IR Inten    --      8.0074                64.0716               275.1172

                     31                     32                     33
                      A                      A                      A
 Frequencies --    576.9610               600.5163               628.2237
 Red. masses --      3.1810                 5.5346                 6.4166
 Frc consts  --      0.6239                 1.1759                 1.4921
 IR Inten    --      4.1461                54.3263                 0.1366

                     34                     35                     36
                      A                      A                      A
 Frequencies --    634.7111               642.0314               686.5459
 Red. masses --      6.3543                 4.4835                 5.0149
 Frc consts  --      1.5082                 1.0889                 1.3927
 IR Inten    --      0.5498                14.1039                39.0379

                     37                     38                     39
                      A                      A                      A
 Frequencies --    704.5390               709.2862               713.9899
 Red. masses --      2.6241                 3.8311                 2.5397
 Frc consts  --      0.7674                 1.1356                 0.7628
 IR Inten    --     53.4514                70.3860                 1.7888

                     40                     41                     42
                      A                      A                      A
 Frequencies --    733.8079               766.2897               768.3610
 Red. masses --      2.3771                 1.5460                 1.9499
 Frc consts  --      0.7541                 0.5349                 0.6783
 IR Inten    --     16.1729                34.5768                75.0031

                     43                     44                     45
                      A                      A                      A
 Frequencies --    790.6756               824.2399               839.5628
 Red. masses --      3.6574                 1.7308                 3.3518
 Frc consts  --      1.3472                 0.6928                 1.3920
 IR Inten    --     14.3281                 6.0329                99.3871

                     46                     47                     48
                      A                      A                      A
 Frequencies --    862.5335               865.0127               889.5927
 Red. masses --      1.2545                 1.2443                 2.4909
 Frc consts  --      0.5499                 0.5486                 1.1614
 IR Inten    --      0.3508                 0.5674                20.4774

                     49                     50                     51
                      A                      A                      A
 Frequencies --    915.9247               938.2303               938.8994
 Red. masses --      1.4943                 1.3757                 1.8150
 Frc consts  --      0.7386                 0.7135                 0.9427
 IR Inten    --      6.6591                 1.3886                23.0138

                     52                     53                     54
                      A                      A                      A
 Frequencies --    968.6198               972.5318               983.1643
 Red. masses --      2.3217                 1.3630                 1.3531
 Frc consts  --      1.2834                 0.7596                 0.7706
 IR Inten    --    141.4568                 3.5569                 0.8770

                     55                     56                     57
                      A                      A                      A
 Frequencies --    997.2862              1000.9555              1007.4139
 Red. masses --      1.3534                 3.4453                 1.2635
 Frc consts  --      0.7931                 2.0338                 0.7555
 IR Inten    --     12.3809               102.4056                 0.4231

                     58                     59                     60
                      A                      A                      A
 Frequencies --   1014.7656              1016.2016              1025.0415
 Red. masses --      6.1395                 5.2860                 3.8984
 Frc consts  --      3.7249                 3.2161                 2.4133
 IR Inten    --      0.8238                17.5674                67.4599

                     61                     62                     63
                      A                      A                      A
 Frequencies --   1047.4092              1053.0901              1055.0193
 Red. masses --      2.7130                 1.3620                 2.1158
 Frc consts  --      1.7536                 0.8900                 1.3875
 IR Inten    --      1.0050                33.5120                12.8104

                     64                     65                     66
                      A                      A                      A
 Frequencies --   1063.2127              1067.6201              1092.2082
 Red. masses --      2.5715                 4.0218                 1.8886
 Frc consts  --      1.7127                 2.7008                 1.3274
 IR Inten    --    136.9962               146.6738                 4.6282

                     67                     68                     69
                      A                      A                      A
 Frequencies --   1101.6271              1108.4335              1125.8163
 Red. masses --      1.5951                 3.1753                 1.9876
 Frc consts  --      1.1405                 2.2985                 1.4843
 IR Inten    --      9.7106               113.8100                15.3624

                     70                     71                     72
                      A                      A                      A
 Frequencies --   1139.8244              1174.3341              1185.1956
 Red. masses --      3.8226                12.1155                 1.0942
 Frc consts  --      2.9261                 9.8440                 0.9056
 IR Inten    --    524.5129               395.5054                 0.4871

                     73                     74                     75
                      A                      A                      A
 Frequencies --   1186.8665              1193.4770              1198.4448
 Red. masses --      1.1002                 1.3012                 1.1658
 Frc consts  --      0.9131                 1.0920                 0.9865
 IR Inten    --      0.1917                 2.6826                 5.2523

                     76                     77                     78
                      A                      A                      A
 Frequencies --   1208.1060              1217.1860              1225.2694
 Red. masses --      1.1641                 1.4099                 2.1755
 Frc consts  --      1.0010                 1.2307                 1.9243
 IR Inten    --      1.2549                24.0272                 6.2834

                     79                     80                     81
                      A                      A                      A
 Frequencies --   1242.2976              1259.7860              1321.4027
 Red. masses --      1.5488                 1.9809                 1.3567
 Frc consts  --      1.4083                 1.8523                 1.3958
 IR Inten    --     64.3866                47.4661                84.1409

                     82                     83                     84
                      A                      A                      A
 Frequencies --   1331.1883              1350.5614              1352.2482
 Red. masses --      1.7045                 3.3779                 3.5782
 Frc consts  --      1.7796                 3.6302                 3.8551
 IR Inten    --      3.1180                 1.6011                 0.4982

                     85                     86                     87
                      A                      A                      A
 Frequencies --   1364.5123              1395.4999              1401.6976
 Red. masses --      1.4799                 1.3489                 1.3740
 Frc consts  --      1.6235                 1.5477                 1.5905
 IR Inten    --      0.0564                 2.0109                 2.4060

                     88                     89                     90
                      A                      A                      A
 Frequencies --   1452.9038              1468.8173              1484.4179
 Red. masses --      1.0907                 1.1097                 2.1155
 Frc consts  --      1.3565                 1.4106                 2.7464
 IR Inten    --     12.3075                 7.7456                17.2433

                     91                     92                     93
                      A                      A                      A
 Frequencies --   1496.6560              1506.5838              1512.5220
 Red. masses --      2.0031                 1.1384                 1.0850
 Frc consts  --      2.6436                 1.5225                 1.4624
 IR Inten    --      4.7370                 9.8172                 5.1165

                     94                     95                     96
                      A                      A                      A
 Frequencies --   1520.8445              1542.8084              1634.7049
 Red. masses --      2.0715                 2.1863                 5.6837
 Frc consts  --      2.8230                 3.0660                 8.9486
 IR Inten    --      8.5503                21.6416                 0.0610

                     97                     98                     99
                      A                      A                      A
 Frequencies --   1636.8197              1640.2447              1658.0858
 Red. masses --      5.3980                 5.4706                 5.5833
 Frc consts  --      8.5209                 8.6716                 9.0438
 IR Inten    --      1.4642                 0.9528                14.5314

                    100                    101                    102
                      A                      A                      A
 Frequencies --   3034.8336              3063.3259              3077.5830
 Red. masses --      1.0643                 1.0648                 1.0966
 Frc consts  --      5.7753                 5.8872                 6.1195
 IR Inten    --     46.7049                28.9145                52.3168

                    103                    104                    105
                      A                      A                      A
 Frequencies --   3096.4713              3100.3568              3116.8256
 Red. masses --      1.0560                 1.0574                 1.0993
 Frc consts  --      5.9655                 5.9886                 6.2918
 IR Inten    --     28.5867                 3.9004                29.3389

                    106                    107                    108
                      A                      A                      A
 Frequencies --   3166.0388              3167.8495              3175.1319
 Red. masses --      1.1106                 1.1101                 1.0862
 Frc consts  --      6.5592                 6.5637                 6.4517
 IR Inten    --     13.8745                 4.1388                16.6753

                    109                    110                    111
                      A                      A                      A
 Frequencies --   3179.3701              3188.8330              3189.9643
 Red. masses --      1.0865                 1.0900                 1.0856
 Frc consts  --      6.4710                 6.5305                 6.5084
 IR Inten    --      8.2880                20.0335                 0.4033

                    112                    113                    114
                      A                      A                      A
 Frequencies --   3195.7380              3197.3880              3208.1633
 Red. masses --      1.0940                 1.0891                 1.0977
 Frc consts  --      6.5828                 6.5599                 6.6567
 IR Inten    --     87.0583                22.2663                33.8521

                    115                    116                    117
                      A                      A                      A
 Frequencies --   3208.8920              3215.6161              3227.1917
 Red. masses --      1.0923                 1.0955                 1.0924
 Frc consts  --      6.6269                 6.6743                 6.7032
 IR Inten    --     33.5092                33.4434                13.2852

 - Thermochemistry -
 -------------------
 Temperature   298.150 Kelvin.  Pressure   1.00000 Atm.
 Atom     1 has atomic number  8 and mass  15.99491

 Molecular mass:   348.07281 amu.
 Principal axes and moments of inertia in atomic units:
                           1         2         3
     Eigenvalues --  6430.412939803.52493**********
           X            0.99973  -0.01826   0.01425
           Y            0.01821   0.99983   0.00375
           Z           -0.01432  -0.00349   0.99989
 This molecule is an asymmetric top.
 Rotational symmetry number  1.
 Warning -- assumption of classical behavior for rotation
           may cause significant error
 Rotational temperatures (Kelvin)      0.01347     0.00883     0.00607
 Rotational constants (GHZ):           0.28066     0.18409     0.12648
 Zero-point vibrational energy     842388.3 (Joules/Mol)
                                  201.33564 (Kcal/Mol)
 Warning -- explicit consideration of  32 degrees of freedom as
           vibrations may cause significant error
 Vibrational temperatures:     22.91    33.60    46.95    56.07    74.48
          (Kelvin)             83.96   118.59   152.91   164.20   214.51
                              241.32   297.68   330.29   337.86   366.65
                              423.32   430.28   461.09   477.09   500.42
                              546.67   571.73   588.17   595.69   599.68
                              696.89   706.02   740.01   803.34   817.90
                              830.12   864.01   903.87   913.21   923.74
                              987.79  1013.67  1020.50  1027.27  1055.79
                             1102.52  1105.50  1137.61  1185.90  1207.94
                             1240.99  1244.56  1279.93  1317.81  1349.90
                             1350.87  1393.63  1399.26  1414.55  1434.87
                             1440.15  1449.44  1460.02  1462.09  1474.81
                             1506.99  1515.16  1517.94  1529.73  1536.07
                             1571.44  1585.00  1594.79  1619.80  1639.95
                             1689.60  1705.23  1707.64  1717.15  1724.29
                             1738.20  1751.26  1762.89  1787.39  1812.55
                             1901.20  1915.28  1943.16  1945.58  1963.23
                             2007.81  2016.73  2090.40  2113.30  2135.75
                             2153.35  2167.64  2176.18  2188.16  2219.76
                             2351.98  2355.02  2359.95  2385.62  4366.45
                             4407.44  4427.96  4455.13  4460.72  4484.42
                             4555.22  4557.83  4568.31  4574.40  4588.02
                             4589.65  4597.95  4600.33  4615.83  4616.88
                             4626.55  4643.21

 Zero-point correction=                           0.320849 (Hartree/Particle)
 Thermal correction to Energy=                    0.341835
 Thermal correction to Enthalpy=                  0.342780
 Thermal correction to Gibbs Free Energy=         0.268034
 Sum of electronic and zero-point Energies=          -1735.216182
 Sum of electronic and thermal Energies=             -1735.195195
 Sum of electronic and thermal Enthalpies=           -1735.194251
 Sum of electronic and thermal Free Energies=        -1735.268997

                     E (Thermal)             CV                S
                      KCal/Mol        Cal/Mol-Kelvin    Cal/Mol-Kelvin
 Total                  214.505             81.445            157.317
 Electronic               0.000              0.000              0.000
 Translational            0.889              2.981             43.436
 Rotational               0.889              2.981             35.152
 Vibrational            212.728             75.483             78.729
 Vibration     1          0.593              1.986              7.087
 Vibration     2          0.593              1.985              6.327
 Vibration     3          0.594              1.983              5.663
 Vibration     4          0.594              1.981              5.311
 Vibration     5          0.596              1.977              4.749
 Vibration     6          0.596              1.974              4.512
 Vibration     7          0.600              1.961              3.832
 Vibration     8          0.605              1.944              3.336
 Vibration     9          0.607              1.938              3.197
 Vibration    10          0.618              1.904              2.684
 Vibration    11          0.624              1.882              2.461
 Vibration    12          0.641              1.830              2.071
 Vibration    13          0.652              1.796              1.882
 Vibration    14          0.655              1.788              1.842
 Vibration    15          0.665              1.755              1.697
 Vibration    16          0.689              1.685              1.450
 Vibration    17          0.692              1.675              1.422
 Vibration    18          0.706              1.634              1.308
 Vibration    19          0.714              1.612              1.252
 Vibration    20          0.725              1.580              1.176
 Vibration    21          0.750              1.513              1.039
 Vibration    22          0.764              1.476              0.972
 Vibration    23          0.773              1.451              0.931
 Vibration    24          0.778              1.440              0.913
 Vibration    25          0.780              1.434              0.903
 Vibration    26          0.840              1.285              0.698
 Vibration    27          0.847              1.271              0.682
 Vibration    28          0.869              1.218              0.623
 Vibration    29          0.914              1.121              0.527
 Vibration    30          0.924              1.099              0.507
 Vibration    31          0.933              1.081              0.491
 Vibration    32          0.959              1.031              0.449

                           ! Non-Optimized Parameters !
 Normal termination of Gaussian 16 at Mon Sep 21 06:59:12 2020.

 ----------------------------------------------------------------------
 #p b3lyp/6-31G(d) scrf=(iefpcm,read,solvent=water) geom=allcheck guess
 =read
 ----------------------------------------------------------------------

 Structure from the checkpoint file:  "SM36_m1.a.2.pdb.xyz.mst.a.w.chk"
 -------------------
 SM36_m1.a.2.pdb.xyz
 -------------------
 Charge = -1 Multiplicity = 1

 SCF Done:  E(RB3LYP) =  -1735.53702720     A.U. after    6 cycles
 Normal termination of Gaussian 16 at Mon Sep 21 07:00:10 2020.

 -----------------------------
 #p B3LYP/6-31G* geom=allcheck
 -----------------------------

 Structure from the checkpoint file:  "SM36_m1.a.2.pdb.xyz.mst.a.w.chk"
 -------------------
 SM36_m1.a.2.pdb.xyz
 -------------------
 Charge = -1 Multiplicity = 1

 SCF Done:  E(RB3LYP) =  -1735.35472867     A.U. after   16 cycles
 Normal termination of Gaussian 16 at Mon Sep 21 07:01:39 2020.
 Gaussian 16:  ES64L-G16RevB.01 20-Dec-2017

 ----------------------------------------------------------------------
 #p mp2/aug-cc-pVDZ scf=(MaxCycle=2000,NoVarAcc,NoIncFock) maxdisk=120G
 B geom=allcheck
 ----------------------------------------------------------------------

 Structure from the checkpoint file:  "SM36_m1.a.2.pdb.xyz.mst.a.w.chk"
 -------------------
 SM36_m1.a.2.pdb.xyz
 -------------------
 Charge = -1 Multiplicity = 1

                         Standard orientation:
 ---------------------------------------------------------------------
 Center     Atomic      Atomic             Coordinates (Angstroms)
 Number     Number       Type             X           Y           Z
 ---------------------------------------------------------------------
      1          8           0       -0.073518   -1.088956   -1.556449
      2         16           0       -0.374217   -1.179585   -0.091748
      3          7           0       -0.014648    0.095145    0.766661
      4          6           0        0.002805    1.416777    0.146568
      5          6           0       -0.230334    2.510658    1.232842
      6         16           0       -1.376380    3.508212    0.147803
      7          8           0       -0.582235    4.566651   -0.625389
      8          6           0       -1.241398    1.853019   -0.700838
      9          6           0        1.292276    1.722871   -0.659982
     10          6           0        2.629328    1.566141    0.106185
     11          6           0        3.255633    0.183693    0.102323
     12          6           0        3.725009   -0.383687   -1.093375
     13          6           0        4.333790   -1.640229   -1.106088
     14          6           0        4.490634   -2.357270    0.083807
     15          6           0        4.031672   -1.804747    1.281794
     16          6           0        3.420675   -0.547936    1.286957
     17          6           0       -2.175994   -1.450683   -0.022443
     18          6           0       -2.862343   -1.902082   -1.152921
     19          6           0       -4.234034   -2.159146   -1.075777
     20          6           0       -4.917215   -1.970620    0.127774
     21          6           0       -4.226840   -1.519909    1.257614
     22          6           0       -2.857864   -1.258735    1.184777
     23          8           0        0.185630   -2.385297    0.589223
     24          1           0        0.627553    3.093287    1.577590
     25          1           0       -0.804591    2.141054    2.086395
     26          1           0       -1.116832    1.945237   -1.782675
     27          1           0       -2.148602    1.288596   -0.471027
     28          1           0        1.218718    2.757823   -1.015113
     29          1           0        1.293366    1.082246   -1.547701
     30          1           0        2.507738    1.902388    1.142941
     31          1           0        3.347787    2.259990   -0.350243
     32          1           0        3.618088    0.168325   -2.024775
     33          1           0        4.690655   -2.057148   -2.044481
     34          1           0        4.966546   -3.334163    0.076621
     35          1           0        4.148085   -2.351205    2.214276
     36          1           0        3.063450   -0.128270    2.224413
     37          1           0       -2.324468   -2.042273   -2.084331
     38          1           0       -4.767371   -2.505058   -1.957012
     39          1           0       -5.983616   -2.169634    0.185648
     40          1           0       -4.755304   -1.368140    2.194783
     41          1           0       -2.322936   -0.894986    2.056799
 ---------------------------------------------------------------------

 SCF Done:  E(RHF) =  -1728.31126824     A.U. after   18 cycles
 E2 =    -0.3462662707D+01 EUMP2 =    -0.17317739309467D+04

 The electronic state is 1-A.
 Alpha  occ. eigenvalues --  -92.05139 -91.95643 -20.40773 -20.38998 -20.37909
 Alpha  occ. eigenvalues --  -15.38111 -11.17354 -11.15760 -11.15586 -11.15461
 Alpha  occ. eigenvalues --  -11.15429 -11.15379 -11.15243 -11.14999 -11.14815
 Alpha  occ. eigenvalues --  -11.13462 -11.13384 -11.13202 -11.13056 -11.12696
 Alpha  occ. eigenvalues --  -11.12550 -11.12487 -11.10784  -9.01768  -8.94558
 Alpha  occ. eigenvalues --   -6.70337  -6.70247  -6.70195  -6.62788  -6.62655
 Alpha  occ. eigenvalues --   -6.62535  -1.27307  -1.21100  -1.15059  -1.06771
 Alpha  occ. eigenvalues --   -1.06059  -1.04134  -0.97638  -0.94758  -0.92818
 Alpha  occ. eigenvalues --   -0.92543  -0.90212  -0.87713  -0.82623  -0.79699
 Alpha  occ. eigenvalues --   -0.75396  -0.73557  -0.72532  -0.71429  -0.68000
 Alpha  occ. eigenvalues --   -0.67330  -0.62628  -0.59880  -0.58384  -0.55733
 Alpha  occ. eigenvalues --   -0.54134  -0.53688  -0.52760  -0.52348  -0.51228
 Alpha  occ. eigenvalues --   -0.51157  -0.49618  -0.49426  -0.48257  -0.47694
 Alpha  occ. eigenvalues --   -0.47318  -0.46082  -0.45254  -0.43766  -0.42740
 Alpha  occ. eigenvalues --   -0.42079  -0.41930  -0.40881  -0.40493  -0.40283
 Alpha  occ. eigenvalues --   -0.38518  -0.37942  -0.36926  -0.36287  -0.35880
 Alpha  occ. eigenvalues --   -0.34118  -0.32821  -0.30992  -0.29275  -0.28575
 Alpha  occ. eigenvalues --   -0.25886  -0.24806  -0.24489  -0.24141  -0.22166
 Alpha  occ. eigenvalues --   -0.21927  -0.19615
 Alpha virt. eigenvalues --    0.09624   0.10700   0.10987   0.11518   0.11740
 Alpha virt. eigenvalues --    0.11913   0.12668   0.13084   0.13436   0.14310
 Alpha virt. eigenvalues --    0.14458   0.14812   0.15245   0.15400   0.16513

 Mulliken charges:
               1
     1  O   -1.387690
     2  S    2.859892
     3  N   -1.481370
     4  C   -0.287265
     5  C    0.616830
     6  S    1.456090
     7  O   -1.283459
     8  C    0.832242
     9  C    0.429261
    10  C    0.441324
    11  C    0.945075
    12  C    0.652438
    13  C    0.008697
    14  C    0.708749
    15  C    0.020580
    16  C    0.751558
    17  C    0.760617
    18  C    0.333164
    19  C    0.310129
    20  C    0.774239
    21  C    0.158956
    22  C    0.429561
    23  O   -1.286727
    24  H   -0.239222
    25  H   -0.292970
    26  H   -0.335845
    27  H   -0.245691
    28  H   -0.143042
    29  H   -0.263247
    30  H   -0.362855
    31  H   -0.111809
    32  H   -0.748343
    33  H   -0.518186
    34  H   -0.479089
    35  H   -0.510937
    36  H   -0.711912
    37  H   -0.632270
    38  H   -0.481649
    39  H   -0.473983
    40  H   -0.502154
    41  H   -0.709690
 Sum of Mulliken charges =  -1.00000

 Dipole moment (field-independent basis, Debye):
    X=             -2.6250    Y=             -0.3827    Z=              1.5177  Tot=              3.0563
 Quadrupole moment (field-independent basis, Debye-Ang):
   XX=           -169.8291   YY=           -209.9040   ZZ=           -154.3433
   XY=              6.1739   XZ=             -1.8153   YZ=              9.9657

 Normal termination of Gaussian 16 at Mon Sep 21 08:44:12 2020.
