 Gaussian 16, Revision B.01,

 ----------------------------------------------------------------------
 #p b3lyp/6-31G(d) opt freq NoSymm scf=(MaxCycle=2000,NoVarAcc,NoIncFoc
 k) scrf=(iefpcm,read,solvent=water)
 ----------------------------------------------------------------------

 --------------------
 SM36_m1.a.11.pdb.xyz
 --------------------
 Symbolic Z-matrix:
 Charge = -1 Multiplicity = 1

 SCF Done:  E(RB3LYP) =  -1735.52974759     A.U. after   13 cycles
 SCF Done:  E(RB3LYP) =  -1735.53995213     A.U. after   11 cycles
 SCF Done:  E(RB3LYP) =  -1735.54169156     A.U. after   11 cycles
 SCF Done:  E(RB3LYP) =  -1735.54215196     A.U. after   10 cycles
 SCF Done:  E(RB3LYP) =  -1735.54219111     A.U. after    9 cycles
 SCF Done:  E(RB3LYP) =  -1735.54230134     A.U. after   10 cycles
 SCF Done:  E(RB3LYP) =  -1735.54234200     A.U. after    9 cycles
 SCF Done:  E(RB3LYP) =  -1735.54229317     A.U. after   10 cycles
 SCF Done:  E(RB3LYP) =  -1735.54241193     A.U. after   10 cycles
 SCF Done:  E(RB3LYP) =  -1735.54235769     A.U. after    9 cycles
 SCF Done:  E(RB3LYP) =  -1735.54241627     A.U. after    8 cycles
 SCF Done:  E(RB3LYP) =  -1735.54240370     A.U. after    8 cycles
 SCF Done:  E(RB3LYP) =  -1735.54240216     A.U. after    7 cycles
 SCF Done:  E(RB3LYP) =  -1735.54240008     A.U. after    7 cycles
 SCF Done:  E(RB3LYP) =  -1735.54241245     A.U. after    9 cycles
 SCF Done:  E(RB3LYP) =  -1735.54241623     A.U. after    8 cycles
 Optimization completed.
    -- Stationary point found.
 Normal termination of Gaussian 16 at Mon Sep 21 06:25:51 2020.

 --------------------------------------------------------------------
 #P Geom=AllCheck Guess=TCheck SCRF=Check GenChk RB3LYP/6-31G(d) Freq
 --------------------------------------------------------------------

 Structure from the checkpoint file:  "SM36_m1.a.11.pdb.xyz.mst.a.w.chk"
 --------------------
 SM36_m1.a.11.pdb.xyz
 --------------------
 Charge = -1 Multiplicity = 1

 SCF Done:  E(RB3LYP) =  -1735.54241623     A.U. after    1 cycles

  Exact polarizability: 355.589   3.347 318.905  -0.781  30.971 234.883
 Approx polarizability: 389.303  -1.552 368.823  -9.937  32.007 276.420

                      1                      2                      3
                      A                      A                      A
 Frequencies --     16.1555                22.5374                28.9298
 Red. masses --      5.6713                 3.8911                 5.9295
 Frc consts  --      0.0009                 0.0012                 0.0029
 IR Inten    --      1.2015                 0.7830                 1.4808

                      4                      5                      6
                      A                      A                      A
 Frequencies --     36.6141                51.5693                62.8375
 Red. masses --      6.3081                 4.1862                 5.6037
 Frc consts  --      0.0050                 0.0066                 0.0130
 IR Inten    --      2.3465                 0.3348                 4.2827

                      7                      8                      9
                      A                      A                      A
 Frequencies --     77.6934               100.4355               129.8341
 Red. masses --      6.5563                 4.3790                 6.9561
 Frc consts  --      0.0233                 0.0260                 0.0691
 IR Inten    --     10.3179                 1.0312                 4.9486

                     10                     11                     12
                      A                      A                      A
 Frequencies --    152.0345               162.9235               173.3119
 Red. masses --      5.3111                 6.2209                 4.3187
 Frc consts  --      0.0723                 0.0973                 0.0764
 IR Inten    --      7.2287                 4.1996                10.0544

                     13                     14                     15
                      A                      A                      A
 Frequencies --    213.0285               242.0403               273.2445
 Red. masses --      5.0618                 4.7704                 6.4247
 Frc consts  --      0.1353                 0.1647                 0.2826
 IR Inten    --     11.7150                 4.5869                 0.5872

                     16                     17                     18
                      A                      A                      A
 Frequencies --    287.0815               298.0782               310.9785
 Red. masses --      5.0170                 5.6708                 2.4022
 Frc consts  --      0.2436                 0.2969                 0.1369
 IR Inten    --     16.6883                 6.7060                 7.6580

                     19                     20                     21
                      A                      A                      A
 Frequencies --    336.4800               352.3471               366.4087
 Red. masses --      4.1925                 2.9464                 3.2979
 Frc consts  --      0.2797                 0.2155                 0.2609
 IR Inten    --      5.4753                 4.0497                 1.4034

                     22                     23                     24
                      A                      A                      A
 Frequencies --    383.2239               417.0870               418.4505
 Red. masses --      3.4251                 3.0023                 2.9780
 Frc consts  --      0.2964                 0.3077                 0.3072
 IR Inten    --      8.3853                 0.2539                 0.0066

                     25                     26                     27
                      A                      A                      A
 Frequencies --    426.7353               462.9163               502.4496
 Red. masses --      4.9165                 5.1051                 4.1316
 Frc consts  --      0.5275                 0.6446                 0.6146
 IR Inten    --     12.7724                 9.4212                 8.9147

                     28                     29                     30
                      A                      A                      A
 Frequencies --    521.2481               549.8714               574.0285
 Red. masses --      3.3390                 7.8630                 9.0856
 Frc consts  --      0.5345                 1.4008                 1.7639
 IR Inten    --     13.0476                63.7032               234.2327

                     31                     32                     33
                      A                      A                      A
 Frequencies --    585.3499               617.5764               628.2595
 Red. masses --      6.2006                 4.2481                 6.4258
 Frc consts  --      1.2517                 0.9546                 1.4944
 IR Inten    --     46.9599                61.8885                 0.3122

                     34                     35                     36
                      A                      A                      A
 Frequencies --    634.7652               635.9785               686.7101
 Red. masses --      6.1569                 4.7084                 5.2657
 Frc consts  --      1.4616                 1.1220                 1.4630
 IR Inten    --      2.5017                19.2701                34.4051

                     37                     38                     39
                      A                      A                      A
 Frequencies --    706.6570               711.9364               716.6715
 Red. masses --      2.8657                 4.3013                 1.9459
 Frc consts  --      0.8431                 1.2845                 0.5889
 IR Inten    --     56.8995                56.7834                30.1129

                     40                     41                     42
                      A                      A                      A
 Frequencies --    760.8112               768.5386               776.8699
 Red. masses --      1.9209                 1.5319                 1.5559
 Frc consts  --      0.6551                 0.5331                 0.5532
 IR Inten    --     25.9649                33.9408                62.6798

                     43                     44                     45
                      A                      A                      A
 Frequencies --    792.2021               818.2852               832.0343
 Red. masses --      2.6685                 1.7731                 3.7200
 Frc consts  --      0.9867                 0.6995                 1.5173
 IR Inten    --      6.9621                11.8801                33.2337

                     46                     47                     48
                      A                      A                      A
 Frequencies --    865.5798               869.0638               881.5114
 Red. masses --      1.2521                 1.2406                 2.5109
 Frc consts  --      0.5527                 0.5521                 1.1496
 IR Inten    --      0.2479                 0.3881                35.9189

                     49                     50                     51
                      A                      A                      A
 Frequencies --    914.3041               930.2998               943.7219
 Red. masses --      2.5111                 1.5101                 1.3273
 Frc consts  --      1.2368                 0.7700                 0.6965
 IR Inten    --     29.8176                 9.5932                 2.4174

                     52                     53                     54
                      A                      A                      A
 Frequencies --    970.9016               975.8051               987.4034
 Red. masses --      2.5912                 1.3531                 1.3490
 Frc consts  --      1.4392                 0.7591                 0.7749
 IR Inten    --    179.0385                 0.0615                 0.7336

                     55                     56                     57
                      A                      A                      A
 Frequencies --    997.2003              1001.4118              1009.8340
 Red. masses --      3.1732                 1.2967                 1.2870
 Frc consts  --      1.8591                 0.7662                 0.7733
 IR Inten    --     58.1971                 6.1436                 0.5044

                     58                     59                     60
                      A                      A                      A
 Frequencies --   1013.3529              1015.4003              1033.4579
 Red. masses --      5.3317                 6.1350                 5.3641
 Frc consts  --      3.2258                 3.7268                 3.3755
 IR Inten    --      9.6360                 0.7252               185.8863

                     61                     62                     63
                      A                      A                      A
 Frequencies --   1047.6852              1051.3524              1055.4496
 Red. masses --      2.4041                 1.3223                 2.2483
 Frc consts  --      1.5548                 0.8612                 1.4756
 IR Inten    --     12.1066                10.4403                19.9557

                     64                     65                     66
                      A                      A                      A
 Frequencies --   1064.8067              1067.4658              1083.3798
 Red. masses --      2.7777                 2.4414                 2.5099
 Frc consts  --      1.8556                 1.6391                 1.7357
 IR Inten    --     54.7870               182.9321                42.3032

                     67                     68                     69
                      A                      A                      A
 Frequencies --   1100.2258              1109.6606              1119.0332
 Red. masses --      1.6664                 2.9424                 1.8552
 Frc consts  --      1.1885                 2.1347                 1.3688
 IR Inten    --     14.6685               113.7471               128.9816

                     70                     71                     72
                      A                      A                      A
 Frequencies --   1142.3258              1173.4993              1185.3908
 Red. masses --      3.0283                13.3068                 1.0949
 Frc consts  --      2.3283                10.7967                 0.9065
 IR Inten    --    380.2818               479.8304                 0.7982

                     73                     74                     75
                      A                      A                      A
 Frequencies --   1188.2440              1193.8310              1198.6152
 Red. masses --      1.1013                 1.2937                 1.1624
 Frc consts  --      0.9162                 1.0864                 0.9839
 IR Inten    --      0.1035                 5.9320                 3.9873

                     76                     77                     78
                      A                      A                      A
 Frequencies --   1207.6026              1208.1663              1229.6560
 Red. masses --      1.1538                 1.3089                 2.4167
 Frc consts  --      0.9913                 1.1257                 2.1530
 IR Inten    --      0.4919                 4.5039                 1.6671

                     79                     80                     81
                      A                      A                      A
 Frequencies --   1246.6684              1272.8808              1310.5347
 Red. masses --      1.9038                 1.9161                 1.4476
 Frc consts  --      1.7433                 1.8291                 1.4649
 IR Inten    --     67.3681               131.9603                 1.7400

                     82                     83                     84
                      A                      A                      A
 Frequencies --   1330.4362              1341.6698              1352.0859
 Red. masses --      1.6291                 1.5949                 4.0503
 Frc consts  --      1.6990                 1.6915                 4.3626
 IR Inten    --      1.7573                27.3580                 0.4679

                     85                     86                     87
                      A                      A                      A
 Frequencies --   1357.5024              1370.7913              1399.8409
 Red. masses --      2.6764                 1.2390                 1.4734
 Frc consts  --      2.9059                 1.3717                 1.7010
 IR Inten    --      9.2397                 5.2678                 4.1461

                     88                     89                     90
                      A                      A                      A
 Frequencies --   1448.0869              1466.3257              1485.2504
 Red. masses --      1.0913                 1.1117                 2.1096
 Frc consts  --      1.3483                 1.4083                 2.7418
 IR Inten    --     17.8546                10.9702                18.2606

                     91                     92                     93
                      A                      A                      A
 Frequencies --   1496.8862              1500.3927              1520.8157
 Red. masses --      2.1331                 1.0913                 2.0804
 Frc consts  --      2.8161                 1.4475                 2.8350
 IR Inten    --      6.2194                 3.8054                 7.7888

                     94                     95                     96
                      A                      A                      A
 Frequencies --   1523.0006              1542.6365              1635.2588
 Red. masses --      1.1008                 2.2096                 5.6944
 Frc consts  --      1.5044                 3.0981                 8.9716
 IR Inten    --      5.3790                20.4003                 0.2192

                     97                     98                     99
                      A                      A                      A
 Frequencies --   1637.2186              1640.7784              1658.7846
 Red. masses --      5.4372                 5.4802                 5.5978
 Frc consts  --      8.5870                 8.6926                 9.0750
 IR Inten    --      1.1604                 0.5791                13.7433

                    100                    101                    102
                      A                      A                      A
 Frequencies --   3035.9541              3050.9039              3085.1898
 Red. masses --      1.0624                 1.0642                 1.0997
 Frc consts  --      5.7694                 5.8362                 6.1673
 IR Inten    --     17.5700                70.9782                10.0201

                    103                    104                    105
                      A                      A                      A
 Frequencies --   3099.7806              3105.2683              3110.1068
 Red. masses --      1.0575                 1.0603                 1.0977
 Frc consts  --      5.9868                 6.0238                 6.2557
 IR Inten    --     22.7442                 6.6097                65.9006

                    106                    107                    108
                      A                      A                      A
 Frequencies --   3171.0974              3175.2469              3176.3026
 Red. masses --      1.1093                 1.0865                 1.0874
 Frc consts  --      6.5723                 6.4538                 6.4638
 IR Inten    --      6.3838                19.1200                13.2231

                    109                    110                    111
                      A                      A                      A
 Frequencies --   3182.9818              3188.4047              3191.5961
 Red. masses --      1.1088                 1.0895                 1.0856
 Frc consts  --      6.6186                 6.5255                 6.5154
 IR Inten    --      3.5489                12.7513                 0.0658

                    112                    113                    114
                      A                      A                      A
 Frequencies --   3195.8809              3199.8421              3208.5104
 Red. masses --      1.0938                 1.0893                 1.0977
 Frc consts  --      6.5821                 6.5714                 6.6579
 IR Inten    --     80.6398                25.4041                37.0323

                    115                    116                    117
                      A                      A                      A
 Frequencies --   3211.2025              3219.9726              3226.3478
 Red. masses --      1.0934                 1.0935                 1.0931
 Frc consts  --      6.6431                 6.6802                 6.7040
 IR Inten    --     36.6101                21.9101                14.1163

 - Thermochemistry -
 -------------------
 Temperature   298.150 Kelvin.  Pressure   1.00000 Atm.
 Atom     1 has atomic number  8 and mass  15.99491

 Molecular mass:   348.07281 amu.
 Principal axes and moments of inertia in atomic units:
                           1         2         3
     Eigenvalues --  5360.53425********************
           X            0.99990   0.01339   0.00512
           Y           -0.01364   0.99852   0.05261
           Z           -0.00441  -0.05267   0.99860
 This molecule is an asymmetric top.
 Rotational symmetry number  1.
 Warning -- assumption of classical behavior for rotation
           may cause significant error
 Rotational temperatures (Kelvin)      0.01616     0.00582     0.00509
 Rotational constants (GHZ):           0.33667     0.12136     0.10609
 Zero-point vibrational energy     842358.2 (Joules/Mol)
                                  201.32844 (Kcal/Mol)
 Warning -- explicit consideration of  32 degrees of freedom as
           vibrations may cause significant error
 Vibrational temperatures:     23.24    32.43    41.62    52.68    74.20
          (Kelvin)             90.41   111.78   144.50   186.80   218.74
                              234.41   249.36   306.50   348.24   393.14
                              413.05   428.87   447.43   484.12   506.95
                              527.18   551.37   600.10   602.06   613.98
                              666.03   722.91   749.96   791.14   825.90
                              842.19   888.55   903.93   913.29   915.03
                              988.02  1016.72  1024.32  1031.13  1094.64
                             1105.76  1117.74  1139.80  1177.33  1197.11
                             1245.38  1250.39  1268.30  1315.48  1338.49
                             1357.81  1396.91  1403.97  1420.65  1434.75
                             1440.81  1452.93  1457.99  1460.93  1486.92
                             1507.39  1512.66  1518.56  1532.02  1535.85
                             1558.74  1582.98  1596.55  1610.04  1643.55
                             1688.40  1705.51  1709.62  1717.66  1724.54
                             1737.47  1738.28  1769.20  1793.68  1831.39
                             1885.57  1914.20  1930.36  1945.35  1953.14
                             1972.26  2014.06  2083.47  2109.72  2136.94
                             2153.69  2158.73  2188.11  2191.26  2219.51
                             2352.77  2355.59  2360.71  2386.62  4368.06
                             4389.57  4438.90  4459.89  4467.79  4474.75
                             4562.50  4568.47  4569.99  4579.60  4587.40
                             4591.99  4598.16  4603.86  4616.33  4620.20
                             4632.82  4641.99

 Zero-point correction=                           0.320837 (Hartree/Particle)
 Thermal correction to Energy=                    0.341868
 Thermal correction to Enthalpy=                  0.342813
 Thermal correction to Gibbs Free Energy=         0.267595
 Sum of electronic and zero-point Energies=          -1735.221579
 Sum of electronic and thermal Energies=             -1735.200548
 Sum of electronic and thermal Enthalpies=           -1735.199604
 Sum of electronic and thermal Free Energies=        -1735.274821

                     E (Thermal)             CV                S
                      KCal/Mol        Cal/Mol-Kelvin    Cal/Mol-Kelvin
 Total                  214.526             81.412            158.308
 Electronic               0.000              0.000              0.000
 Translational            0.889              2.981             43.436
 Rotational               0.889              2.981             35.560
 Vibrational            212.748             75.451             79.312
 Vibration     1          0.593              1.986              7.058
 Vibration     2          0.593              1.985              6.397
 Vibration     3          0.593              1.984              5.901
 Vibration     4          0.594              1.982              5.434
 Vibration     5          0.596              1.977              4.756
 Vibration     6          0.597              1.972              4.366
 Vibration     7          0.599              1.964              3.948
 Vibration     8          0.604              1.949              3.446
 Vibration     9          0.612              1.923              2.949
 Vibration    10          0.619              1.900              2.647
 Vibration    11          0.623              1.888              2.516
 Vibration    12          0.627              1.875              2.399
 Vibration    13          0.644              1.821              2.018
 Vibration    14          0.658              1.776              1.788
 Vibration    15          0.676              1.723              1.576
 Vibration    16          0.684              1.698              1.491
 Vibration    17          0.691              1.677              1.428
 Vibration    18          0.700              1.653              1.357
 Vibration    19          0.717              1.603              1.229
 Vibration    20          0.729              1.570              1.156
 Vibration    21          0.739              1.541              1.095
 Vibration    22          0.752              1.506              1.026
 Vibration    23          0.780              1.433              0.902
 Vibration    24          0.781              1.430              0.897
 Vibration    25          0.788              1.412              0.869
 Vibration    26          0.821              1.332              0.758
 Vibration    27          0.858              1.245              0.652
 Vibration    28          0.876              1.203              0.607
 Vibration    29          0.905              1.140              0.544
 Vibration    30          0.930              1.087              0.497
 Vibration    31          0.942              1.063              0.476
 Vibration    32          0.977              0.995              0.420

                           ! Non-Optimized Parameters !
 Normal termination of Gaussian 16 at Mon Sep 21 06:48:35 2020.

 ----------------------------------------------------------------------
 #p b3lyp/6-31G(d) scrf=(iefpcm,read,solvent=water) geom=allcheck guess
 =read
 ----------------------------------------------------------------------

 Structure from the checkpoint file:  "SM36_m1.a.11.pdb.xyz.mst.a.w.chk"
 --------------------
 SM36_m1.a.11.pdb.xyz
 --------------------
 Charge = -1 Multiplicity = 1

 SCF Done:  E(RB3LYP) =  -1735.54239918     A.U. after    6 cycles
 Normal termination of Gaussian 16 at Mon Sep 21 06:49:30 2020.

 -----------------------------
 #p B3LYP/6-31G* geom=allcheck
 -----------------------------

 Structure from the checkpoint file:  "SM36_m1.a.11.pdb.xyz.mst.a.w.chk"
 --------------------
 SM36_m1.a.11.pdb.xyz
 --------------------
 Charge = -1 Multiplicity = 1

 SCF Done:  E(RB3LYP) =  -1735.36756848     A.U. after   15 cycles
 Normal termination of Gaussian 16 at Mon Sep 21 06:50:46 2020.
 Gaussian 16:  ES64L-G16RevB.01 20-Dec-2017

 ----------------------------------------------------------------------
 #p mp2/aug-cc-pVDZ scf=(MaxCycle=2000,NoVarAcc,NoIncFock) maxdisk=120G
 B geom=allcheck
 ----------------------------------------------------------------------

 Structure from the checkpoint file:  "SM36_m1.a.11.pdb.xyz.mst.a.w.chk"
 --------------------
 SM36_m1.a.11.pdb.xyz
 --------------------
 Charge = -1 Multiplicity = 1

                         Standard orientation:
 ---------------------------------------------------------------------
 Center     Atomic      Atomic             Coordinates (Angstroms)
 Number     Number       Type             X           Y           Z
 ---------------------------------------------------------------------
      1          8           0       -2.358871   -0.923709    2.615179
      2         16           0       -2.113258   -0.063844    1.420151
      3          7           0       -0.583739   -0.176916    1.039752
      4          6           0        0.060766    0.810041    0.185371
      5          6           0        0.247004    2.244743    0.785218
      6         16           0       -0.084123    3.079891   -0.851091
      7          8           0        1.231646    3.302877   -1.607450
      8          6           0       -0.679282    1.327454   -1.095990
      9          6           0        1.425442    0.223917   -0.248664
     10          6           0        2.348001   -0.202020    0.909786
     11          6           0        3.685921   -0.712880    0.417040
     12          6           0        4.754378    0.167769    0.188663
     13          6           0        5.980344   -0.296554   -0.293386
     14          6           0        6.160639   -1.657202   -0.557437
     15          6           0        5.105880   -2.546248   -0.334176
     16          6           0        3.882119   -2.075882    0.148862
     17          6           0       -3.110903   -0.831468    0.105501
     18          6           0       -2.628166   -1.963878   -0.558448
     19          6           0       -3.416815   -2.588912   -1.525883
     20          6           0       -4.684923   -2.085090   -1.830923
     21          6           0       -5.163165   -0.953165   -1.166012
     22          6           0       -4.378927   -0.325425   -0.194922
     23          8           0       -2.661180    1.327198    1.533817
     24          1           0        1.222320    2.509888    1.201743
     25          1           0       -0.557314    2.521052    1.468589
     26          1           0       -0.378156    0.906546   -2.059272
     27          1           0       -1.767612    1.341185   -1.013878
     28          1           0        1.939525    0.966840   -0.869899
     29          1           0        1.227355   -0.647387   -0.887491
     30          1           0        1.845904   -0.978455    1.495035
     31          1           0        2.510076    0.649873    1.582501
     32          1           0        4.624079    1.227970    0.395620
     33          1           0        6.795584    0.403208   -0.458471
     34          1           0        7.114536   -2.021136   -0.929510
     35          1           0        5.236402   -3.607216   -0.531414
     36          1           0        3.067854   -2.775667    0.324799
     37          1           0       -1.637450   -2.342289   -0.327764
     38          1           0       -3.039505   -3.466048   -2.044210
     39          1           0       -5.295538   -2.570800   -2.586866
     40          1           0       -6.146238   -0.555945   -1.403259
     41          1           0       -4.740206    0.557896    0.320560
 ---------------------------------------------------------------------

 SCF Done:  E(RHF) =  -1728.32393591     A.U. after   16 cycles
 E2 =    -0.3457273701D+01 EUMP2 =    -0.17317812096064D+04

 The electronic state is 1-A.
 Alpha  occ. eigenvalues --  -92.05610 -91.95024 -20.40209 -20.39650 -20.38531
 Alpha  occ. eigenvalues --  -15.38585 -11.17501 -11.16333 -11.16286 -11.16022
 Alpha  occ. eigenvalues --  -11.16009 -11.16002 -11.15830 -11.15645 -11.15625
 Alpha  occ. eigenvalues --  -11.15385 -11.15338 -11.15249 -11.15187 -11.15039
 Alpha  occ. eigenvalues --  -11.14438 -11.12806 -11.11865  -9.02278  -8.93927
 Alpha  occ. eigenvalues --   -6.70842  -6.70750  -6.70706  -6.62154  -6.62019
 Alpha  occ. eigenvalues --   -6.61899  -1.27955  -1.20493  -1.15711  -1.07324
 Alpha  occ. eigenvalues --   -1.06745  -1.06243  -0.97799  -0.96558  -0.93197
 Alpha  occ. eigenvalues --   -0.93141  -0.92814  -0.89307  -0.82123  -0.80444
 Alpha  occ. eigenvalues --   -0.75963  -0.74414  -0.73860  -0.72567  -0.69757
 Alpha  occ. eigenvalues --   -0.67792  -0.62912  -0.61057  -0.60138  -0.56418
 Alpha  occ. eigenvalues --   -0.55408  -0.54956  -0.54079  -0.53390  -0.52541
 Alpha  occ. eigenvalues --   -0.51536  -0.50364  -0.49928  -0.49348  -0.48638
 Alpha  occ. eigenvalues --   -0.47636  -0.46624  -0.45710  -0.44465  -0.43516
 Alpha  occ. eigenvalues --   -0.43092  -0.41729  -0.41352  -0.41124  -0.40595
 Alpha  occ. eigenvalues --   -0.40484  -0.39582  -0.38158  -0.36802  -0.36432
 Alpha  occ. eigenvalues --   -0.34955  -0.33251  -0.31573  -0.29620  -0.28435
 Alpha  occ. eigenvalues --   -0.27052  -0.25392  -0.24816  -0.24647  -0.24273
 Alpha  occ. eigenvalues --   -0.22412  -0.21457
 Alpha virt. eigenvalues --    0.09173   0.09568   0.10171   0.10704   0.11190
 Alpha virt. eigenvalues --    0.11914   0.12750   0.13311   0.13687   0.14100
 Alpha virt. eigenvalues --    0.14542   0.15037   0.15068   0.16206   0.16508

 Mulliken charges:
               1
     1  O   -1.297246
     2  S    2.893210
     3  N   -1.690593
     4  C    0.818782
     5  C    0.213742
     6  S    1.459566
     7  O   -1.298033
     8  C    0.530724
     9  C   -0.154042
    10  C    0.840521
    11  C    1.149990
    12  C    0.503105
    13  C    0.026659
    14  C    0.659078
    15  C    0.006646
    16  C    0.520617
    17  C    0.620396
    18  C    0.507429
    19  C    0.225420
    20  C    0.723309
    21  C    0.386692
    22  C    0.192914
    23  O   -1.370540
    24  H   -0.288305
    25  H   -0.222956
    26  H   -0.330415
    27  H   -0.230421
    28  H   -0.143280
    29  H   -0.234378
    30  H   -0.296934
    31  H   -0.287568
    32  H   -0.666270
    33  H   -0.476631
    34  H   -0.451304
    35  H   -0.480538
    36  H   -0.625478
    37  H   -0.660146
    38  H   -0.507616
    39  H   -0.464472
    40  H   -0.479092
    41  H   -0.622540
 Sum of Mulliken charges =  -1.00000

 Dipole moment (field-independent basis, Debye):
    X=              2.6937    Y=             -3.5804    Z=             -4.8964  Tot=              6.6370
 Quadrupole moment (field-independent basis, Debye-Ang):
   XX=           -186.6305   YY=           -176.5052   ZZ=           -183.8688
   XY=             -6.0388   XZ=             23.7471   YZ=             18.6577

 Normal termination of Gaussian 16 at Mon Sep 21 09:53:59 2020.
