 Gaussian 16, Revision B.01,

 ----------------------------------------------------------------------
 #p b3lyp/6-31G(d) opt freq NoSymm scf=(MaxCycle=2000,NoVarAcc,NoIncFoc
 k) scrf=(iefpcm,read,solvent=water)
 ----------------------------------------------------------------------

 -------------------
 SM36_m0.n.6.pdb.xyz
 -------------------
 Symbolic Z-matrix:
 Charge =  0 Multiplicity = 1

 SCF Done:  E(RB3LYP) =  -1735.93813347     A.U. after   13 cycles
 SCF Done:  E(RB3LYP) =  -1735.93812544     A.U. after   10 cycles
 SCF Done:  E(RB3LYP) =  -1735.93807931     A.U. after   10 cycles
 SCF Done:  E(RB3LYP) =  -1735.93822954     A.U. after   10 cycles
 SCF Done:  E(RB3LYP) =  -1735.93818426     A.U. after   10 cycles
 SCF Done:  E(RB3LYP) =  -1735.93817255     A.U. after   10 cycles
 SCF Done:  E(RB3LYP) =  -1735.93822741     A.U. after   10 cycles
 SCF Done:  E(RB3LYP) =  -1735.93822969     A.U. after    8 cycles
 SCF Done:  E(RB3LYP) =  -1735.93816269     A.U. after   10 cycles
 SCF Done:  E(RB3LYP) =  -1735.93818311     A.U. after    8 cycles
 SCF Done:  E(RB3LYP) =  -1735.93822946     A.U. after    9 cycles
 SCF Done:  E(RB3LYP) =  -1735.93818652     A.U. after   10 cycles
 SCF Done:  E(RB3LYP) =  -1735.93818750     A.U. after    7 cycles
 SCF Done:  E(RB3LYP) =  -1735.93822635     A.U. after   10 cycles
 SCF Done:  E(RB3LYP) =  -1735.93822944     A.U. after    9 cycles
 SCF Done:  E(RB3LYP) =  -1735.93818695     A.U. after   10 cycles
 Optimization completed.
    -- Stationary point found.
 Normal termination of Gaussian 16 at Mon Sep 21 07:10:18 2020.

 --------------------------------------------------------------------
 #P Geom=AllCheck Guess=TCheck SCRF=Check GenChk RB3LYP/6-31G(d) Freq
 --------------------------------------------------------------------

 Structure from the checkpoint file:  "SM36_m0.n.6.pdb.xyz.mst.n.w.chk"
 -------------------
 SM36_m0.n.6.pdb.xyz
 -------------------
 Charge =  0 Multiplicity = 1

 SCF Done:  E(RB3LYP) =  -1735.93818695     A.U. after    1 cycles

  Exact polarizability: 326.227  -3.614 278.562 -43.693   1.673 279.059
 Approx polarizability: 350.491   4.814 330.020 -51.428   1.259 334.789

                      1                      2                      3
                      A                      A                      A
 Frequencies --      5.7136                18.3336                22.5873
 Red. masses --      6.5895                 5.7744                 3.9351
 Frc consts  --      0.0001                 0.0011                 0.0012
 IR Inten    --      1.4190                 0.5893                 0.0761

                      4                      5                      6
                      A                      A                      A
 Frequencies --     42.2665                43.7298                53.2403
 Red. masses --      5.0596                 4.5842                 6.6803
 Frc consts  --      0.0053                 0.0052                 0.0112
 IR Inten    --      0.4123                 0.2805                 0.4382

                      7                      8                      9
                      A                      A                      A
 Frequencies --     91.2321               113.1855               142.5986
 Red. masses --      6.8480                 4.6325                 6.6120
 Frc consts  --      0.0336                 0.0350                 0.0792
 IR Inten    --     14.1330                 1.7748                 9.7736

                     10                     11                     12
                      A                      A                      A
 Frequencies --    165.7237               175.3003               186.7470
 Red. masses --      5.5739                 5.8757                 5.2742
 Frc consts  --      0.0902                 0.1064                 0.1084
 IR Inten    --      6.8412                 1.4862                 3.8294

                     13                     14                     15
                      A                      A                      A
 Frequencies --    208.3938               243.7710               268.5837
 Red. masses --      4.7373                 8.5672                 4.6364
 Frc consts  --      0.1212                 0.3000                 0.1971
 IR Inten    --     19.0725                 1.9622                 0.9679

                     16                     17                     18
                      A                      A                      A
 Frequencies --    300.1648               308.1427               328.5152
 Red. masses --      2.9656                 8.0700                 3.0575
 Frc consts  --      0.1574                 0.4515                 0.1944
 IR Inten    --      2.6621                 9.6464                 2.3709

                     19                     20                     21
                      A                      A                      A
 Frequencies --    344.1201               350.5661               381.1240
 Red. masses --      4.3648                 2.0743                 3.2078
 Frc consts  --      0.3045                 0.1502                 0.2745
 IR Inten    --     17.3756                 3.7596                 1.5093

                     22                     23                     24
                      A                      A                      A
 Frequencies --    392.1993               407.9329               411.2554
 Red. masses --      2.6946                 4.2503                 2.9739
 Frc consts  --      0.2442                 0.4167                 0.2963
 IR Inten    --      7.3796                 9.1227                 0.4221

                     25                     26                     27
                      A                      A                      A
 Frequencies --    418.9722               460.1442               478.7864
 Red. masses --      2.9577                 2.6615                 3.3150
 Frc consts  --      0.3059                 0.3320                 0.4477
 IR Inten    --      0.0154                34.9395                 9.2008

                     28                     29                     30
                      A                      A                      A
 Frequencies --    497.2908               516.1100               551.2168
 Red. masses --      2.5343                 3.5055                 5.3012
 Frc consts  --      0.3693                 0.5502                 0.9490
 IR Inten    --     93.4965                31.6296               149.4700

                     31                     32                     33
                      A                      A                      A
 Frequencies --    569.2149               587.4029               600.6331
 Red. masses --      5.3148                 4.8387                 3.5393
 Frc consts  --      1.0146                 0.9837                 0.7523
 IR Inten    --    147.2667               218.4867                13.2718

                     34                     35                     36
                      A                      A                      A
 Frequencies --    625.3889               634.6541               637.2584
 Red. masses --      6.4454                 6.3129                 4.5023
 Frc consts  --      1.4853                 1.4981                 1.0772
 IR Inten    --      0.1974                 0.5189                29.9712

                     37                     38                     39
                      A                      A                      A
 Frequencies --    697.2782               711.8229               716.7741
 Red. masses --      2.5468                 3.7322                 2.1103
 Frc consts  --      0.7296                 1.1142                 0.6388
 IR Inten    --     39.1843                19.6879                17.4709

                     40                     41                     42
                      A                      A                      A
 Frequencies --    721.6866               747.8600               764.4024
 Red. masses --      5.6935                 2.1749                 1.4669
 Frc consts  --      1.7471                 0.7167                 0.5050
 IR Inten    --     68.2985                44.0531                39.9684

                     43                     44                     45
                      A                      A                      A
 Frequencies --    777.2669               779.2757               827.1554
 Red. masses --      2.5988                 2.3309                 2.2208
 Frc consts  --      0.9251                 0.8340                 0.8952
 IR Inten    --      8.4236                12.4732                40.2867

                     46                     47                     48
                      A                      A                      A
 Frequencies --    843.2581               859.1340               867.2312
 Red. masses --      2.3156                 1.2502                 1.2542
 Frc consts  --      0.9701                 0.5437                 0.5557
 IR Inten    --     49.8359                 0.1144                 0.3792

                     49                     50                     51
                      A                      A                      A
 Frequencies --    901.4210               916.7790               945.1503
 Red. masses --      2.1051                 2.0120                 1.7735
 Frc consts  --      1.0078                 0.9963                 0.9334
 IR Inten    --     54.6869                50.9580                 6.8554

                     52                     53                     54
                      A                      A                      A
 Frequencies --    946.0840               956.5591               978.4357
 Red. masses --      1.3305                 2.1283                 1.3745
 Frc consts  --      0.7016                 1.1474                 0.7753
 IR Inten    --      0.6971                20.0343                 6.5287

                     55                     56                     57
                      A                      A                      A
 Frequencies --    983.8296               989.0264              1005.6340
 Red. masses --      2.0186                 1.3552                 1.2556
 Frc consts  --      1.1512                 0.7811                 0.7481
 IR Inten    --    144.8113                 0.2202                 0.6438

                     58                     59                     60
                      A                      A                      A
 Frequencies --   1013.4148              1016.5051              1020.9540
 Red. masses --      6.3444                 6.1910                 1.2899
 Frc consts  --      3.8390                 3.7690                 0.7922
 IR Inten    --      9.4382                 1.1638                 0.2539

                     61                     62                     63
                      A                      A                      A
 Frequencies --   1035.7648              1048.5850              1050.5555
 Red. masses --      2.9341                 2.4065                 1.4724
 Frc consts  --      1.8546                 1.5590                 0.9575
 IR Inten    --      0.9226                20.5454                 4.5471

                     64                     65                     66
                      A                      A                      A
 Frequencies --   1057.4096              1064.1525              1081.1925
 Red. masses --      2.3399                 2.7142                 3.5995
 Frc consts  --      1.5414                 1.8109                 2.4791
 IR Inten    --     37.7387               242.2202                95.3039

                     67                     68                     69
                      A                      A                      A
 Frequencies --   1089.9119              1110.2974              1111.1977
 Red. masses --      2.2690                 1.9714                 1.6206
 Frc consts  --      1.5881                 1.4319                 1.1790
 IR Inten    --      5.0832                16.5342                10.5420

                     70                     71                     72
                      A                      A                      A
 Frequencies --   1127.1059              1136.8193              1183.0475
 Red. masses --      3.3981                 2.3355                 1.0899
 Frc consts  --      2.5434                 1.7783                 0.8988
 IR Inten    --    140.5025               133.3024                 0.1944

                     73                     74                     75
                      A                      A                      A
 Frequencies --   1189.9976              1195.8421              1206.6013
 Red. masses --      1.3128                 1.1009                 1.1363
 Frc consts  --      1.0953                 0.9276                 0.9747
 IR Inten    --      3.7663                 0.1936                 0.2692

                     76                     77                     78
                      A                      A                      A
 Frequencies --   1206.7629              1211.6415              1233.9977
 Red. masses --      1.1552                 1.2910                 2.4277
 Frc consts  --      0.9912                 1.1167                 2.1781
 IR Inten    --      0.8977                28.8807                 2.7762

                     79                     80                     81
                      A                      A                      A
 Frequencies --   1247.8332              1265.1304              1292.2484
 Red. masses --      2.2083                 1.6520                 4.3437
 Frc consts  --      2.0260                 1.5579                 4.2737
 IR Inten    --     13.9513               116.6332               176.3291

                     82                     83                     84
                      A                      A                      A
 Frequencies --   1310.4288              1344.9389              1355.2338
 Red. masses --      1.6079                 1.5554                 3.3501
 Frc consts  --      1.6268                 1.6577                 3.6253
 IR Inten    --    134.2792                 2.6015                 3.5791

                     85                     86                     87
                      A                      A                      A
 Frequencies --   1363.6418              1364.4811              1397.6305
 Red. masses --      1.6527                 3.2696                 1.4206
 Frc consts  --      1.8107                 3.5865                 1.6350
 IR Inten    --      1.2732                 1.6705                11.2577

                     88                     89                     90
                      A                      A                      A
 Frequencies --   1405.6317              1461.7496              1467.7579
 Red. masses --      1.3648                 1.2289                 1.0876
 Frc consts  --      1.5888                 1.5471                 1.3805
 IR Inten    --     20.5955                76.7957                 9.7835

                     91                     92                     93
                      A                      A                      A
 Frequencies --   1486.2864              1493.1393              1496.6511
 Red. masses --      1.1190                 2.1457                 1.7918
 Frc consts  --      1.4564                 2.8185                 2.3647
 IR Inten    --      5.2340                25.9517                 5.0950

                     94                     95                     96
                      A                      A                      A
 Frequencies --   1506.0322              1520.4027              1524.1638
 Red. masses --      1.2216                 1.1016                 2.0434
 Frc consts  --      1.6324                 1.5004                 2.7969
 IR Inten    --     12.3544                 6.3118                 4.0031

                     97                     98                     99
                      A                      A                      A
 Frequencies --   1543.6141              1640.8283              1641.7144
 Red. masses --      2.2342                 5.5213                 5.4177
 Frc consts  --      3.1365                 8.7583                 8.6032
 IR Inten    --     17.3876                 1.2523                 2.7986

                    100                    101                    102
                      A                      A                      A
 Frequencies --   1645.3292              1661.4630              3052.5492
 Red. masses --      5.7661                 5.6463                 1.0670
 Frc consts  --      9.1968                 9.1832                 5.8577
 IR Inten    --      0.0453                 8.7810                11.9053

                    103                    104                    105
                      A                      A                      A
 Frequencies --   3062.8952              3111.5169              3119.1184
 Red. masses --      1.0668                 1.0979                 1.0574
 Frc consts  --      5.8968                 6.2624                 6.0612
 IR Inten    --     91.5835                10.1781                 5.0774

                    106                    107                    108
                      A                      A                      A
 Frequencies --   3125.1693              3148.0002              3190.0117
 Red. masses --      1.0956                 1.0569                 1.1109
 Frc consts  --      6.3043                 6.1708                 6.6608
 IR Inten    --     37.8713                 9.1422                 3.7567

                    109                    110                    111
                      A                      A                      A
 Frequencies --   3191.9430              3194.5307              3203.2409
 Red. masses --      1.0855                 1.0873                 1.0903
 Frc consts  --      6.5159                 6.5376                 6.5916
 IR Inten    --     11.5633                 5.9280                23.6222

                    112                    113                    114
                      A                      A                      A
 Frequencies --   3210.9188              3218.4943              3221.6268
 Red. masses --      1.0942                 1.0863                 1.0981
 Frc consts  --      6.6466                 6.6300                 6.7151
 IR Inten    --     77.5641                 0.2751                28.2005

                    115                    116                    117
                      A                      A                      A
 Frequencies --   3222.4995              3225.2906              3232.4848
 Red. masses --      1.1099                 1.0889                 1.0931
 Frc consts  --      6.7908                 6.6741                 6.7294
 IR Inten    --      4.3965                 7.8169                21.6751

                    118                    119                    120
                      A                      A                      A
 Frequencies --   3240.2272              3251.4081              3489.4383
 Red. masses --      1.0968                 1.0933                 1.0758
 Frc consts  --      6.7848                 6.8099                 7.7180
 IR Inten    --     23.3377                 6.9325               122.4742

 - Thermochemistry -
 -------------------
 Temperature   298.150 Kelvin.  Pressure   1.00000 Atm.
 Atom     1 has atomic number  8 and mass  15.99491

 Molecular mass:   349.08064 amu.
 Principal axes and moments of inertia in atomic units:
                           1         2         3
     Eigenvalues --  4235.72745********************
           X            0.99998  -0.00398  -0.00439
           Y            0.00385   0.99956  -0.02942
           Z            0.00450   0.02940   0.99956
 This molecule is an asymmetric top.
 Rotational symmetry number  1.
 Warning -- assumption of classical behavior for rotation
           may cause significant error
 Rotational temperatures (Kelvin)      0.02045     0.00667     0.00582
 Rotational constants (GHZ):           0.42608     0.13888     0.12131
 Zero-point vibrational energy     879602.3 (Joules/Mol)
                                  210.22999 (Kcal/Mol)
 Warning -- explicit consideration of  33 degrees of freedom as
           vibrations may cause significant error
 Vibrational temperatures:      8.22    26.38    32.50    60.81    62.92
          (Kelvin)             76.60   131.26   162.85   205.17   238.44
                              252.22   268.69   299.83   350.73   386.43
                              431.87   443.35   472.66   495.11   504.39
                              548.35   564.29   586.92   591.70   602.81
                              662.04   688.87   715.49   742.57   793.08
                              818.97   845.14   864.18   899.80   913.13
                              916.87  1003.23  1024.15  1031.28  1038.35
                             1076.00  1099.80  1118.31  1121.20  1190.09
                             1213.26  1236.10  1247.75  1296.94  1319.04
                             1359.86  1361.20  1376.28  1407.75  1415.51
                             1422.99  1446.88  1458.08  1462.52  1468.93
                             1490.23  1508.68  1511.51  1521.38  1531.08
                             1555.59  1568.14  1597.47  1598.77  1621.65
                             1635.63  1702.14  1712.14  1720.55  1736.03
                             1736.26  1743.28  1775.45  1795.35  1820.24
                             1859.26  1885.41  1935.07  1949.88  1961.98
                             1963.18  2010.88  2022.39  2103.13  2111.78
                             2138.43  2148.29  2153.35  2166.84  2187.52
                             2192.93  2220.92  2360.79  2362.06  2367.26
                             2390.47  4391.94  4406.82  4476.78  4487.72
                             4496.42  4529.27  4589.72  4592.49  4596.22
                             4608.75  4619.80  4630.70  4635.20  4636.46
                             4640.47  4650.82  4661.96  4678.05  5020.52

 Zero-point correction=                           0.335023 (Hartree/Particle)
 Thermal correction to Energy=                    0.356178
 Thermal correction to Enthalpy=                  0.357122
 Thermal correction to Gibbs Free Energy=         0.280861
 Sum of electronic and zero-point Energies=          -1735.603164
 Sum of electronic and thermal Energies=             -1735.582009
 Sum of electronic and thermal Enthalpies=           -1735.581065
 Sum of electronic and thermal Free Energies=        -1735.657326

                     E (Thermal)             CV                S
                      KCal/Mol        Cal/Mol-Kelvin    Cal/Mol-Kelvin
 Total                  223.505             82.498            160.504
 Electronic               0.000              0.000              0.000
 Translational            0.889              2.981             43.444
 Rotational               0.889              2.981             35.059
 Vibrational            221.727             76.537             82.001
 Vibration     1          0.593              1.987              9.123
 Vibration     2          0.593              1.986              6.807
 Vibration     3          0.593              1.985              6.393
 Vibration     4          0.595              1.980              5.150
 Vibration     5          0.595              1.980              5.083
 Vibration     6          0.596              1.976              4.693
 Vibration     7          0.602              1.955              3.633
 Vibration     8          0.607              1.939              3.214
 Vibration     9          0.616              1.911              2.769
 Vibration    10          0.624              1.885              2.483
 Vibration    11          0.627              1.873              2.378
 Vibration    12          0.632              1.858              2.260
 Vibration    13          0.642              1.828              2.058
 Vibration    14          0.659              1.773              1.775
 Vibration    15          0.673              1.731              1.605
 Vibration    16          0.693              1.673              1.416
 Vibration    17          0.698              1.658              1.372
 Vibration    18          0.712              1.619              1.267
 Vibration    19          0.723              1.587              1.193
 Vibration    20          0.727              1.574              1.164
 Vibration    21          0.751              1.510              1.035
 Vibration    22          0.760              1.487              0.992
 Vibration    23          0.773              1.453              0.934
 Vibration    24          0.775              1.446              0.922
 Vibration    25          0.782              1.429              0.895
 Vibration    26          0.818              1.338              0.766
 Vibration    27          0.835              1.297              0.713
 Vibration    28          0.853              1.256              0.665
 Vibration    29          0.871              1.214              0.619
 Vibration    30          0.907              1.137              0.542
 Vibration    31          0.925              1.098              0.506
 Vibration    32          0.945              1.059              0.472
 Vibration    33          0.959              1.030              0.449

 Optimization completed.
    -- Stationary point found.
 Normal termination of Gaussian 16 at Mon Sep 21 07:37:11 2020.

 ----------------------------------------------------------------------
 #p b3lyp/6-31G(d) scrf=(iefpcm,read,solvent=water) geom=allcheck guess
 =read
 ----------------------------------------------------------------------

 Structure from the checkpoint file:  "SM36_m0.n.6.pdb.xyz.mst.n.w.chk"
 -------------------
 SM36_m0.n.6.pdb.xyz
 -------------------
 Charge =  0 Multiplicity = 1

 SCF Done:  E(RB3LYP) =  -1735.93815012     A.U. after    7 cycles
 Normal termination of Gaussian 16 at Mon Sep 21 07:38:26 2020.

 -----------------------------
 #p B3LYP/6-31G* geom=allcheck
 -----------------------------

 Structure from the checkpoint file:  "SM36_m0.n.6.pdb.xyz.mst.n.w.chk"
 -------------------
 SM36_m0.n.6.pdb.xyz
 -------------------
 Charge =  0 Multiplicity = 1

 SCF Done:  E(RB3LYP) =  -1735.90978318     A.U. after   15 cycles
 Normal termination of Gaussian 16 at Mon Sep 21 07:40:05 2020.
 Gaussian 16:  ES64L-G16RevB.01 20-Dec-2017

 ----------------------------------------------------------------------
 #p mp2/aug-cc-pVDZ scf=(MaxCycle=2000,NoVarAcc,NoIncFock) maxdisk=120G
 B geom=allcheck
 ----------------------------------------------------------------------

 Structure from the checkpoint file:  "SM36_m0.n.6.pdb.xyz.mst.n.w.chk"
 -------------------
 SM36_m0.n.6.pdb.xyz
 -------------------
 Charge =  0 Multiplicity = 1

                         Standard orientation:
 ---------------------------------------------------------------------
 Center     Atomic      Atomic             Coordinates (Angstroms)
 Number     Number       Type             X           Y           Z
 ---------------------------------------------------------------------
      1          8           0       -1.053491   -1.411659   -1.677106
      2         16           0       -1.521953   -1.552866   -0.290349
      3          7           0       -0.369974   -0.863213    0.709987
      4          6           0        0.231247    0.478792    0.581169
      5          6           0       -0.716620    1.710668    0.588946
      6         16           0        0.318340    2.590006   -0.696492
      7          8           0        1.406792    3.411745   -0.006983
      8          6           0        0.851661    0.803915   -0.800489
      9          6           0        1.249048    0.625874    1.735053
     10          6           0        2.303669   -0.487757    1.896536
     11          6           0        3.358692   -0.582854    0.813819
     12          6           0        4.322044    0.423790    0.648967
     13          6           0        5.300328    0.323607   -0.340707
     14          6           0        5.337593   -0.791934   -1.182114
     15          6           0        4.390987   -1.805034   -1.022823
     16          6           0        3.411958   -1.698504   -0.031781
     17          6           0       -3.068222   -0.657751   -0.156471
     18          6           0       -3.794285   -0.717479    1.036980
     19          6           0       -4.999860   -0.023934    1.122116
     20          6           0       -5.468337    0.708078    0.028331
     21          6           0       -4.737897    0.749311   -1.159601
     22          6           0       -3.527297    0.062476   -1.259418
     23          8           0       -1.735771   -2.893075    0.275886
     24          1           0       -0.575404   -1.118678    1.677807
     25          1           0       -0.805667    2.267188    1.523186
     26          1           0       -1.701880    1.524929    0.159179
     27          1           0        1.927827    0.683500   -0.905824
     28          1           0        0.322596    0.340464   -1.632246
     29          1           0        0.675550    0.688496    2.667865
     30          1           0        1.730697    1.599380    1.600908
     31          1           0        1.799948   -1.453676    1.981924
     32          1           0        2.798922   -0.309773    2.858777
     33          1           0        4.306825    1.292049    1.301117
     34          1           0        6.037052    1.113007   -0.451925
     35          1           0        6.099908   -0.871294   -1.950410
     36          1           0        4.413549   -2.678389   -1.667179
     37          1           0        2.675908   -2.487908    0.091034
     38          1           0       -3.430865   -1.296204    1.878443
     39          1           0       -5.575133   -0.058362    2.040343
     40          1           0       -6.407919    1.244116    0.102628
     41          1           0       -5.108095    1.311197   -2.009653
     42          1           0       -2.944688    0.074533   -2.171912
 ---------------------------------------------------------------------

 SCF Done:  E(RHF) =  -1728.86287894     A.U. after   18 cycles
 E2 =    -0.3448666570D+01 EUMP2 =    -0.17323115455133D+04

 The electronic state is 1-A.
 Alpha  occ. eigenvalues --  -92.23866 -92.07614 -20.56977 -20.56579 -20.51897
 Alpha  occ. eigenvalues --  -15.62711 -11.32636 -11.30346 -11.29064 -11.28676
 Alpha  occ. eigenvalues --  -11.28405 -11.28165 -11.27987 -11.27837 -11.27038
 Alpha  occ. eigenvalues --  -11.25296 -11.24828 -11.24624 -11.24168 -11.24127
 Alpha  occ. eigenvalues --  -11.23882 -11.23760 -11.23724  -9.20612  -9.06441
 Alpha  occ. eigenvalues --   -6.89165  -6.89103  -6.89013  -6.74654  -6.74532
 Alpha  occ. eigenvalues --   -6.74405  -1.46825  -1.34767  -1.32637  -1.26037
 Alpha  occ. eigenvalues --   -1.19884  -1.15722  -1.13375  -1.07442  -1.06957
 Alpha  occ. eigenvalues --   -1.05976  -1.01382  -1.00589  -0.95350  -0.93947
 Alpha  occ. eigenvalues --   -0.90752  -0.87119  -0.85533  -0.83422  -0.82660
 Alpha  occ. eigenvalues --   -0.79469  -0.77678  -0.75898  -0.72005  -0.70601
 Alpha  occ. eigenvalues --   -0.69094  -0.68985  -0.67113  -0.65887  -0.65138
 Alpha  occ. eigenvalues --   -0.64370  -0.63476  -0.63012  -0.62714  -0.62561
 Alpha  occ. eigenvalues --   -0.60286  -0.59418  -0.58171  -0.58025  -0.56142
 Alpha  occ. eigenvalues --   -0.55882  -0.54600  -0.54122  -0.53699  -0.53662
 Alpha  occ. eigenvalues --   -0.52457  -0.52024  -0.51757  -0.50364  -0.49594
 Alpha  occ. eigenvalues --   -0.48647  -0.47984  -0.47807  -0.47662  -0.46170
 Alpha  occ. eigenvalues --   -0.44316  -0.39950  -0.37889  -0.37541  -0.36527
 Alpha  occ. eigenvalues --   -0.33493  -0.32530
 Alpha virt. eigenvalues --    0.02038   0.02819   0.03630   0.04041   0.04311
 Alpha virt. eigenvalues --    0.04624   0.05055   0.05523   0.05943   0.06086
 Alpha virt. eigenvalues --    0.06362   0.06631   0.07311   0.07476   0.07582

 Mulliken charges:
               1
     1  O   -1.253885
     2  S    2.863577
     3  N   -0.919530
     4  C   -0.282861
     5  C    0.894113
     6  S    1.525151
     7  O   -1.265394
     8  C    0.456529
     9  C    0.322210
    10  C    0.495283
    11  C    0.772706
    12  C    0.576414
    13  C    0.116816
    14  C    0.708090
    15  C    0.068628
    16  C    0.701616
    17  C    0.805575
    18  C    0.013325
    19  C    0.330160
    20  C    0.628304
    21  C    0.368647
    22  C    0.495467
    23  O   -1.115940
    24  H   -0.155520
    25  H   -0.385473
    26  H   -0.160608
    27  H   -0.215628
    28  H   -0.322710
    29  H   -0.159028
    30  H   -0.054665
    31  H   -0.253352
    32  H   -0.107352
    33  H   -0.680869
    34  H   -0.489210
    35  H   -0.453407
    36  H   -0.485578
    37  H   -0.722903
    38  H   -0.663683
    39  H   -0.473278
    40  H   -0.443047
    41  H   -0.472431
    42  H   -0.606258
 Sum of Mulliken charges =  -0.00000

 Dipole moment (field-independent basis, Debye):
    X=             -4.7858    Y=              1.0044    Z=              2.5994  Tot=              5.5380
 Quadrupole moment (field-independent basis, Debye-Ang):
   XX=           -128.8017   YY=           -182.7636   ZZ=           -143.0641
   XY=            -17.8160   XZ=             -6.4907   YZ=             -2.9392

 Normal termination of Gaussian 16 at Mon Sep 21 10:36:02 2020.
