 Gaussian 16, Revision B.01,

 ----------------------------------------------------------------------
 #p b3lyp/6-31G(d) opt freq NoSymm scf=(MaxCycle=2000,NoVarAcc,NoIncFoc
 k) scrf=(iefpcm,read,solvent=water)
 ----------------------------------------------------------------------

 -------------------
 SM37_m0.n.1.pdb.xyz
 -------------------
 Symbolic Z-matrix:
 Charge =  0 Multiplicity = 1

 SCF Done:  E(RB3LYP) =  -1638.85498230     A.U. after   13 cycles
 SCF Done:  E(RB3LYP) =  -1638.85538081     A.U. after   10 cycles
 SCF Done:  E(RB3LYP) =  -1638.85508508     A.U. after   10 cycles
 SCF Done:  E(RB3LYP) =  -1638.85519251     A.U. after   10 cycles
 SCF Done:  E(RB3LYP) =  -1638.85537130     A.U. after   10 cycles
 SCF Done:  E(RB3LYP) =  -1638.85538075     A.U. after    9 cycles
 SCF Done:  E(RB3LYP) =  -1638.85474631     A.U. after   11 cycles
 SCF Done:  E(RB3LYP) =  -1638.85525319     A.U. after   10 cycles
 SCF Done:  E(RB3LYP) =  -1638.85537527     A.U. after   10 cycles
 SCF Done:  E(RB3LYP) =  -1638.85538231     A.U. after    9 cycles
 SCF Done:  E(RB3LYP) =  -1638.85807454     A.U. after    9 cycles
 SCF Done:  E(RB3LYP) =  -1638.85807599     A.U. after    8 cycles
 SCF Done:  E(RB3LYP) =  -1638.85808900     A.U. after    8 cycles
 SCF Done:  E(RB3LYP) =  -1638.85809251     A.U. after    8 cycles
 SCF Done:  E(RB3LYP) =  -1638.85809571     A.U. after    8 cycles
 SCF Done:  E(RB3LYP) =  -1638.85809535     A.U. after    7 cycles
 Optimization completed.
    -- Stationary point found.
 Normal termination of Gaussian 16 at Mon Sep 21 07:39:05 2020.

 --------------------------------------------------------------------
 #P Geom=AllCheck Guess=TCheck SCRF=Check GenChk RB3LYP/6-31G(d) Freq
 --------------------------------------------------------------------

 Structure from the checkpoint file:  "SM37_m0.n.1.pdb.xyz.mst.n.w.chk"
 -------------------
 SM37_m0.n.1.pdb.xyz
 -------------------
 Charge =  0 Multiplicity = 1

 SCF Done:  E(RB3LYP) =  -1638.85809535     A.U. after    1 cycles

  Exact polarizability: 259.146  17.347 259.195 -40.495   6.542 229.966
 Approx polarizability: 274.451  25.874 299.808 -51.728   7.118 267.067

                      1                      2                      3
                      A                      A                      A
 Frequencies --     15.3711                22.8951                34.2069
 Red. masses --      5.6171                 4.5418                 3.7495
 Frc consts  --      0.0008                 0.0014                 0.0026
 IR Inten    --      0.4451                 5.2255                 0.0590

                      4                      5                      6
                      A                      A                      A
 Frequencies --     44.7400                56.1697                67.0500
 Red. masses --      6.8670                 5.2058                 3.1102
 Frc consts  --      0.0081                 0.0097                 0.0082
 IR Inten    --      4.7809                 6.1425                 1.0880

                      7                      8                      9
                      A                      A                      A
 Frequencies --     83.4273               128.0274               146.5933
 Red. masses --      4.8897                 3.8995                 6.3959
 Frc consts  --      0.0201                 0.0377                 0.0810
 IR Inten    --      2.6024                 5.3484                 6.0922

                     10                     11                     12
                      A                      A                      A
 Frequencies --    180.2755               195.6700               202.7376
 Red. masses --      3.5388                 1.0913                 4.2956
 Frc consts  --      0.0678                 0.0246                 0.1040
 IR Inten    --      0.8143                 0.5654                 2.0942

                     13                     14                     15
                      A                      A                      A
 Frequencies --    226.0394               231.8908               247.6436
 Red. masses --      1.1595                 5.6636                 8.6395
 Frc consts  --      0.0349                 0.1794                 0.3122
 IR Inten    --      0.5827                18.3358                13.2507

                     16                     17                     18
                      A                      A                      A
 Frequencies --    268.0918               272.1730               298.1126
 Red. masses --      2.9704                 3.2000                 3.9575
 Frc consts  --      0.1258                 0.1397                 0.2072
 IR Inten    --      4.6644                 2.7243                 7.0303

                     19                     20                     21
                      A                      A                      A
 Frequencies --    328.0883               348.0645               353.5484
 Red. masses --      2.5769                 2.6451                 3.5232
 Frc consts  --      0.1634                 0.1888                 0.2595
 IR Inten    --      0.6295                 3.9041                33.7141

                     22                     23                     24
                      A                      A                      A
 Frequencies --    371.1717               393.1938               420.1488
 Red. masses --      3.7049                 2.7058                 2.9590
 Frc consts  --      0.3007                 0.2465                 0.3078
 IR Inten    --      5.4339                 3.7421                 0.0565

                     25                     26                     27
                      A                      A                      A
 Frequencies --    436.2805               460.3807               475.9926
 Red. masses --      2.7439                 4.4278                 5.0528
 Frc consts  --      0.3077                 0.5529                 0.6745
 IR Inten    --     10.5411                25.6721                 2.1563

                     28                     29                     30
                      A                      A                      A
 Frequencies --    490.4764               498.5750               530.7076
 Red. masses --      4.1690                 3.5189                 4.5045
 Frc consts  --      0.5909                 0.5154                 0.7475
 IR Inten    --      2.4205                33.1205                63.3681

                     31                     32                     33
                      A                      A                      A
 Frequencies --    555.5388               590.9446               634.4852
 Red. masses --      4.1066                 2.9524                 6.3567
 Frc consts  --      0.7467                 0.6075                 1.5077
 IR Inten    --     11.8638                22.5487                 0.5631

                     34                     35                     36
                      A                      A                      A
 Frequencies --    635.2763               668.4551               669.5372
 Red. masses --      3.2690                 4.3315                 3.7745
 Frc consts  --      0.7773                 1.1403                 0.9969
 IR Inten    --    190.7310                15.2690                14.0087

                     37                     38                     39
                      A                      A                      A
 Frequencies --    700.3356               716.2041               757.0030
 Red. masses --      5.8544                 2.1622                 1.6149
 Frc consts  --      1.6918                 0.6535                 0.5453
 IR Inten    --    290.0050                32.7031                35.4064

                     40                     41                     42
                      A                      A                      A
 Frequencies --    777.0749               827.6624               847.5417
 Red. masses --      3.1229                 2.0611                 2.3125
 Frc consts  --      1.1111                 0.8319                 0.9787
 IR Inten    --      6.4938                64.4892                47.0239

                     43                     44                     45
                      A                      A                      A
 Frequencies --    865.4173               866.3063               897.1231
 Red. masses --      2.4231                 1.2914                 1.6618
 Frc consts  --      1.0692                 0.5710                 0.7880
 IR Inten    --     96.1521                 6.3161                25.3452

                     46                     47                     48
                      A                      A                      A
 Frequencies --    919.4799               935.6805               945.5407
 Red. masses --      1.8490                 2.0725                 1.9917
 Frc consts  --      0.9210                 1.0691                 1.0492
 IR Inten    --      7.3235               107.1497                52.7805

                     49                     50                     51
                      A                      A                      A
 Frequencies --    954.2671               978.5452               996.9387
 Red. masses --      3.0222                 1.3559                 2.0038
 Frc consts  --      1.6215                 0.7649                 1.1734
 IR Inten    --    135.2232                 0.0739                55.8899

                     52                     53                     54
                      A                      A                      A
 Frequencies --   1004.8621              1016.3882              1031.9353
 Red. masses --      1.2573                 6.1334                 2.3800
 Frc consts  --      0.7480                 3.7331                 1.4932
 IR Inten    --      0.8305                 0.4150                16.8879

                     55                     56                     57
                      A                      A                      A
 Frequencies --   1056.8165              1059.6404              1061.7898
 Red. masses --      2.4008                 2.1583                 1.6917
 Frc consts  --      1.5798                 1.4278                 1.1237
 IR Inten    --    143.3490                29.5093               139.7040

                     58                     59                     60
                      A                      A                      A
 Frequencies --   1074.6002              1090.6484              1110.8047
 Red. masses --      1.5456                 1.7905                 6.0802
 Frc consts  --      1.0516                 1.2549                 4.4202
 IR Inten    --     19.3044                19.4434               212.3058

                     61                     62                     63
                      A                      A                      A
 Frequencies --   1130.5643              1132.6923              1141.5660
 Red. masses --      1.7862                 1.2206                 2.4833
 Frc consts  --      1.3451                 0.9227                 1.9067
 IR Inten    --     19.1042                 3.3391                27.7645

                     64                     65                     66
                      A                      A                      A
 Frequencies --   1177.1972              1188.9287              1189.2614
 Red. masses --      1.3724                 1.2732                 1.1288
 Frc consts  --      1.1206                 1.0604                 0.9407
 IR Inten    --      2.3829                 5.7625                 1.6417

                     67                     68                     69
                      A                      A                      A
 Frequencies --   1211.2182              1211.3958              1227.5251
 Red. masses --      1.3491                 1.2126                 3.8168
 Frc consts  --      1.1661                 1.0485                 3.3886
 IR Inten    --     19.9995                 7.6502                26.3669

                     70                     71                     72
                      A                      A                      A
 Frequencies --   1228.3852              1229.8305              1273.8701
 Red. masses --      1.7865                 1.9266                 2.1528
 Frc consts  --      1.5882                 1.7168                 2.0583
 IR Inten    --     26.7789                41.6327               123.4066

                     73                     74                     75
                      A                      A                      A
 Frequencies --   1284.4582              1288.9163              1302.5440
 Red. masses --      2.7676                 1.9947                 2.2456
 Frc consts  --      2.6902                 1.9524                 2.2447
 IR Inten    --    126.6361                36.7013               214.2750

                     76                     77                     78
                      A                      A                      A
 Frequencies --   1347.4505              1363.5329              1388.2141
 Red. masses --      2.4754                 1.8592                 1.4251
 Frc consts  --      2.6480                 2.0366                 1.6182
 IR Inten    --      1.6941                 0.4235                 6.4067

                     79                     80                     81
                      A                      A                      A
 Frequencies --   1400.2028              1453.1423              1471.3131
 Red. masses --      1.3978                 1.1400                 1.1465
 Frc consts  --      1.6147                 1.4183                 1.4622
 IR Inten    --     12.6823                 0.2635                 0.4550

                     82                     83                     84
                      A                      A                      A
 Frequencies --   1471.9237              1480.2104              1492.2930
 Red. masses --      1.1201                 1.1301                 1.2195
 Frc consts  --      1.4298                 1.4588                 1.6000
 IR Inten    --     14.3027                48.7552                16.6990

                     85                     86                     87
                      A                      A                      A
 Frequencies --   1495.9481              1499.3966              1502.7797
 Red. masses --      1.0895                 1.8470                 1.0468
 Frc consts  --      1.4365                 2.4465                 1.3929
 IR Inten    --     20.0444                16.7355                10.8460

                     88                     89                     90
                      A                      A                      A
 Frequencies --   1511.9969              1512.8372              1515.3594
 Red. masses --      1.0798                 1.1001                 1.0555
 Frc consts  --      1.4545                 1.4834                 1.4281
 IR Inten    --      0.9424                16.0094                37.9584

                     91                     92                     93
                      A                      A                      A
 Frequencies --   1533.7254              1543.8951              1640.8263
 Red. masses --      1.0488                 2.2279                 5.4909
 Frc consts  --      1.4535                 3.1289                 8.7101
 IR Inten    --     14.3650                15.8412                 1.5727

                     94                     95                     96
                      A                      A                      A
 Frequencies --   1661.7860              3049.3506              3051.5619
 Red. masses --      5.6076                 1.0652                 1.0458
 Frc consts  --      9.1238                 5.8359                 5.7377
 IR Inten    --      9.3039                33.0385                56.7290

                     97                     98                     99
                      A                      A                      A
 Frequencies --   3059.3762              3067.7161              3092.9566
 Red. masses --      1.0436                 1.0609                 1.0989
 Frc consts  --      5.7549                 5.8824                 6.1935
 IR Inten    --     66.5930                47.9168                33.6923

                    100                    101                    102
                      A                      A                      A
 Frequencies --   3111.0590              3124.4611              3137.5929
 Red. masses --      1.1015                 1.0564                 1.0605
 Frc consts  --      6.2814                 6.0760                 6.1513
 IR Inten    --     51.6522                13.2288                 6.5776

                    103                    104                    105
                      A                      A                      A
 Frequencies --   3139.5333              3142.7466              3192.1754
 Red. masses --      1.0924                 1.0959                 1.0877
 Frc consts  --      6.3440                 6.3774                 6.5305
 IR Inten    --     47.1325                14.5597                18.8264

                    106                    107                    108
                      A                      A                      A
 Frequencies --   3193.0789              3196.1004              3196.3036
 Red. masses --      1.1023                 1.0871                 1.1111
 Frc consts  --      6.6219                 6.5425                 6.6878
 IR Inten    --      8.7503                11.2121                10.2989

                    109                    110                    111
                      A                      A                      A
 Frequencies --   3200.6666              3205.0007              3217.7397
 Red. masses --      1.1015                 1.0892                 1.0935
 Frc consts  --      6.6485                 6.5919                 6.6704
 IR Inten    --      6.6057                18.7985                67.9091

                    112                    113                    114
                      A                      A                      A
 Frequencies --   3226.7141              3229.3112              3479.8518
 Red. masses --      1.0976                 1.1070                 1.0746
 Frc consts  --      6.7332                 6.8019                 7.6672
 IR Inten    --     29.6724                 3.1545                88.8218

 - Thermochemistry -
 -------------------
 Temperature   298.150 Kelvin.  Pressure   1.00000 Atm.
 Atom     1 has atomic number  8 and mass  15.99491

 Molecular mass:   316.09154 amu.
 Principal axes and moments of inertia in atomic units:
                           1         2         3
     Eigenvalues --  3997.661069797.59352**********
           X            0.99971   0.01009   0.02172
           Y           -0.01455   0.97626   0.21611
           Z           -0.01903  -0.21636   0.97613
 This molecule is an asymmetric top.
 Rotational symmetry number  1.
 Warning -- assumption of classical behavior for rotation
           may cause significant error
 Rotational temperatures (Kelvin)      0.02167     0.00884     0.00745
 Rotational constants (GHZ):           0.45145     0.18420     0.15531
 Zero-point vibrational energy     860671.7 (Joules/Mol)
                                  205.70547 (Kcal/Mol)
 Warning -- explicit consideration of  32 degrees of freedom as
           vibrations may cause significant error
 Vibrational temperatures:     22.12    32.94    49.22    64.37    80.82
          (Kelvin)             96.47   120.03   184.20   210.92   259.38
                              281.53   291.69   325.22   333.64   356.30
                              385.72   391.60   428.92   472.05   500.79
                              508.68   534.03   565.72   604.50   627.71
                              662.39   684.85   705.69   717.34   763.57
                              799.30   850.24   912.88   914.02   961.76
                              963.31  1007.63  1030.46  1089.16  1118.04
                             1190.82  1219.42  1245.14  1246.42  1290.76
                             1322.93  1346.24  1360.42  1372.98  1407.91
                             1434.37  1445.77  1462.36  1484.72  1520.52
                             1524.59  1527.68  1546.11  1569.20  1598.20
                             1626.63  1629.69  1642.46  1693.72  1710.60
                             1711.08  1742.67  1742.93  1766.13  1767.37
                             1769.45  1832.81  1848.05  1854.46  1874.07
                             1938.68  1961.82  1997.33  2014.58  2090.75
                             2116.89  2117.77  2129.69  2147.08  2152.34
                             2157.30  2162.16  2175.43  2176.64  2180.26
                             2206.69  2221.32  2360.78  2390.94  4387.34
                             4390.52  4401.76  4413.76  4450.07  4476.12
                             4495.40  4514.30  4517.09  4521.71  4592.83
                             4594.13  4598.48  4598.77  4605.05  4611.28
                             4629.61  4642.52  4646.26  5006.73

 Zero-point correction=                           0.327813 (Hartree/Particle)
 Thermal correction to Energy=                    0.348419
 Thermal correction to Enthalpy=                  0.349364
 Thermal correction to Gibbs Free Energy=         0.276105
 Sum of electronic and zero-point Energies=          -1638.530283
 Sum of electronic and thermal Energies=             -1638.509676
 Sum of electronic and thermal Enthalpies=           -1638.508732
 Sum of electronic and thermal Free Energies=        -1638.581990

                     E (Thermal)             CV                S
                      KCal/Mol        Cal/Mol-Kelvin    Cal/Mol-Kelvin
 Total                  218.636             78.292            154.185
 Electronic               0.000              0.000              0.000
 Translational            0.889              2.981             43.148
 Rotational               0.889              2.981             34.475
 Vibrational            216.859             72.331             76.562
 Vibration     1          0.593              1.986              7.157
 Vibration     2          0.593              1.985              6.366
 Vibration     3          0.594              1.983              5.569
 Vibration     4          0.595              1.980              5.037
 Vibration     5          0.596              1.975              4.587
 Vibration     6          0.598              1.970              4.238
 Vibration     7          0.600              1.961              3.809
 Vibration     8          0.611              1.925              2.975
 Vibration     9          0.617              1.906              2.716
 Vibration    10          0.629              1.866              2.326
 Vibration    11          0.636              1.846              2.173
 Vibration    12          0.639              1.836              2.108
 Vibration    13          0.650              1.801              1.910
 Vibration    14          0.653              1.792              1.864
 Vibration    15          0.661              1.767              1.747
 Vibration    16          0.673              1.732              1.608
 Vibration    17          0.675              1.725              1.582
 Vibration    18          0.691              1.677              1.427
 Vibration    19          0.711              1.619              1.269
 Vibration    20          0.726              1.579              1.175
 Vibration    21          0.730              1.568              1.150
 Vibration    22          0.743              1.531              1.075
 Vibration    23          0.760              1.485              0.988
 Vibration    24          0.783              1.426              0.891
 Vibration    25          0.797              1.391              0.838
 Vibration    26          0.818              1.338              0.765
 Vibration    27          0.833              1.303              0.721
 Vibration    28          0.846              1.271              0.682
 Vibration    29          0.854              1.253              0.662
 Vibration    30          0.886              1.182              0.586
 Vibration    31          0.911              1.128              0.533
 Vibration    32          0.948              1.051              0.465

                           ! Non-Optimized Parameters !
 Normal termination of Gaussian 16 at Mon Sep 21 07:55:48 2020.

 ----------------------------------------------------------------------
 #p b3lyp/6-31G(d) scrf=(iefpcm,read,solvent=water) geom=allcheck guess
 =read
 ----------------------------------------------------------------------

 Structure from the checkpoint file:  "SM37_m0.n.1.pdb.xyz.mst.n.w.chk"
 -------------------
 SM37_m0.n.1.pdb.xyz
 -------------------
 Charge =  0 Multiplicity = 1

 SCF Done:  E(RB3LYP) =  -1638.85807734     A.U. after    7 cycles
 Normal termination of Gaussian 16 at Mon Sep 21 07:56:45 2020.

 -----------------------------
 #p B3LYP/6-31G* geom=allcheck
 -----------------------------

 Structure from the checkpoint file:  "SM37_m0.n.1.pdb.xyz.mst.n.w.chk"
 -------------------
 SM37_m0.n.1.pdb.xyz
 -------------------
 Charge =  0 Multiplicity = 1

 SCF Done:  E(RB3LYP) =  -1638.83017278     A.U. after   16 cycles

 The electronic state is 1-A.
 Alpha  occ. eigenvalues --  -89.13584 -88.97883 -19.15026 -19.14964 -19.10579
 Alpha  occ. eigenvalues --  -14.38464 -14.38297 -10.27024 -10.23695 -10.23016
 Alpha  occ. eigenvalues --  -10.22344 -10.20714 -10.20264 -10.20156 -10.19898
 Alpha  occ. eigenvalues --  -10.19055 -10.19028 -10.18897 -10.18880 -10.18859
 Alpha  occ. eigenvalues --   -8.15814  -8.02634  -6.12290  -6.12242  -6.12213
 Alpha  occ. eigenvalues --   -5.99051  -5.98887  -5.98399  -1.12721  -1.00778
 Alpha  occ. eigenvalues --   -0.99425  -0.95427  -0.94358  -0.85813  -0.84256
 Alpha  occ. eigenvalues --   -0.79473  -0.74431  -0.74107  -0.73883  -0.71873
 Alpha  occ. eigenvalues --   -0.70245  -0.67413  -0.62868  -0.60988  -0.60340
 Alpha  occ. eigenvalues --   -0.58174  -0.57001  -0.55334  -0.51587  -0.51389
 Alpha  occ. eigenvalues --   -0.50966  -0.49156  -0.48131  -0.47723  -0.46734
 Alpha  occ. eigenvalues --   -0.44797  -0.44765  -0.44412  -0.44076  -0.42862
 Alpha  occ. eigenvalues --   -0.42190  -0.41994  -0.41841  -0.41320  -0.41107
 Alpha  occ. eigenvalues --   -0.39994  -0.39581  -0.38513  -0.36622  -0.36197
 Alpha  occ. eigenvalues --   -0.35529  -0.34960  -0.34515  -0.33915  -0.33447
 Alpha  occ. eigenvalues --   -0.33292  -0.32064  -0.30733  -0.28985  -0.26737
 Alpha  occ. eigenvalues --   -0.25764  -0.25006  -0.24304  -0.21885
 Alpha virt. eigenvalues --   -0.00458  -0.00183   0.01882   0.03403   0.04357
 Alpha virt. eigenvalues --    0.05010   0.07060   0.07546   0.08192   0.09383
 Alpha virt. eigenvalues --    0.09624   0.10146   0.10724   0.11482   0.12232

 Mulliken charges:
               1
     1  O   -0.560253
     2  S    1.351100
     3  N   -0.715772
     4  C    0.151572
     5  C   -0.478406
     6  S    0.744927
     7  O   -0.611112
     8  C   -0.471805
     9  C   -0.276697
    10  C   -0.365819
    11  C    0.163908
    12  C   -0.194018
    13  C   -0.122440
    14  C   -0.131214
    15  C   -0.127758
    16  C   -0.178899
    17  N   -0.498024
    18  C   -0.332709
    19  C   -0.327789
    20  O   -0.543209
    21  H    0.338175
    22  H    0.202406
    23  H    0.168745
    24  H    0.217268
    25  H    0.222050
    26  H    0.191463
    27  H    0.138991
    28  H    0.164472
    29  H    0.142665
    30  H    0.130112
    31  H    0.135565
    32  H    0.131992
    33  H    0.134493
    34  H    0.136417
    35  H    0.209296
    36  H    0.177142
    37  H    0.145739
    38  H    0.203086
    39  H    0.164461
    40  H    0.169880
 Sum of Mulliken charges =  -0.00000

 Dipole moment (field-independent basis, Debye):
    X=             -2.8419    Y=             -0.0188    Z=              2.6228  Tot=              3.8673
 Quadrupole moment (field-independent basis, Debye-Ang):
   XX=           -113.4563   YY=           -156.1153   ZZ=           -126.4794
   XY=            -14.0705   XZ=             -1.4695   YZ=              6.3057

 Normal termination of Gaussian 16 at Mon Sep 21 07:58:03 2020.
 Gaussian 16:  ES64L-G16RevB.01 20-Dec-2017

 ----------------------------------------------------------------------
 #p mp2/aug-cc-pVDZ scf=(MaxCycle=2000,NoVarAcc,NoIncFock) maxdisk=120G
 B geom=allcheck
 ----------------------------------------------------------------------

 Structure from the checkpoint file:  "SM37_m0.n.1.pdb.xyz.mst.n.w.chk"
 -------------------
 SM37_m0.n.1.pdb.xyz
 -------------------
 Charge =  0 Multiplicity = 1

                         Standard orientation:
 ---------------------------------------------------------------------
 Center     Atomic      Atomic             Coordinates (Angstroms)
 Number     Number       Type             X           Y           Z
 ---------------------------------------------------------------------
      1          8           0       -1.486925   -1.359302   -1.292197
      2         16           0       -2.309614   -1.089490   -0.108762
      3          7           0       -1.663999    0.294471    0.624366
      4          6           0       -0.187221    0.479195    0.770258
      5          6           0       -0.034092    1.893654    1.385271
      6         16           0       -0.088285    2.667274   -0.309300
      7          8           0        1.068735    3.629251   -0.541114
      8          6           0        0.396288    0.893675   -0.602363
      9          6           0        0.470451   -0.684088    1.537133
     10          6           0        1.969446   -0.556693    1.875492
     11          6           0        2.933607   -0.749179    0.721354
     12          6           0        3.919500    0.207666    0.448325
     13          6           0        4.832595    0.024368   -0.592992
     14          6           0        4.774030   -1.126431   -1.380023
     15          6           0        3.798179   -2.091271   -1.115900
     16          6           0        2.888691   -1.903869   -0.074345
     17          7           0       -3.817925   -0.621109   -0.635333
     18          6           0       -4.874042   -0.497646    0.380762
     19          6           0       -3.835817    0.428249   -1.660744
     20          8           0       -2.525408   -2.160683    0.873193
     21          1           0       -2.136145    0.417313    1.524836
     22          1           0        0.967881    2.060755    1.784452
     23          1           0       -0.794277    2.239068    2.086141
     24          1           0        1.485991    0.851781   -0.610917
     25          1           0       -0.028228    0.428725   -1.487875
     26          1           0        0.312289   -1.605548    0.967423
     27          1           0       -0.082860   -0.802125    2.475391
     28          1           0        2.181765   -1.316085    2.637419
     29          1           0        2.169595    0.407623    2.353397
     30          1           0        3.967547    1.105328    1.058295
     31          1           0        5.585958    0.780158   -0.787677
     32          1           0        5.480986   -1.271682   -2.190926
     33          1           0        3.746512   -2.990884   -1.720360
     34          1           0        2.135127   -2.660712    0.123062
     35          1           0       -4.797460   -1.324614    1.084175
     36          1           0       -5.832892   -0.558243   -0.137549
     37          1           0       -4.822808    0.457414    0.918352
     38          1           0       -3.075005    0.216442   -2.410073
     39          1           0       -3.668509    1.424416   -1.235103
     40          1           0       -4.816502    0.402879   -2.139115
 ---------------------------------------------------------------------

 SCF Done:  E(RHF) =  -1632.40068718     A.U. after   17 cycles
