 Gaussian 16, Revision B.01,

 ----------------------------------------------------------------------
 #p b3lyp/6-31G(d) opt freq NoSymm scf=(MaxCycle=2000,NoVarAcc,NoIncFoc
 k) scrf=(iefpcm,read,solvent=water)
 ----------------------------------------------------------------------

 --------------------
 SM37_m0.n.15.pdb.xyz
 --------------------
 Symbolic Z-matrix:
 Charge =  0 Multiplicity = 1

 SCF Done:  E(RB3LYP) =  -1638.85390833     A.U. after   13 cycles
 SCF Done:  E(RB3LYP) =  -1638.85418462     A.U. after   10 cycles
 SCF Done:  E(RB3LYP) =  -1638.85376696     A.U. after   10 cycles
 SCF Done:  E(RB3LYP) =  -1638.85395324     A.U. after   10 cycles
 SCF Done:  E(RB3LYP) =  -1638.85415017     A.U. after   10 cycles
 SCF Done:  E(RB3LYP) =  -1638.85415640     A.U. after   10 cycles
 SCF Done:  E(RB3LYP) =  -1638.85422264     A.U. after   10 cycles
 SCF Done:  E(RB3LYP) =  -1638.85416536     A.U. after   10 cycles
 SCF Done:  E(RB3LYP) =  -1638.85417976     A.U. after   10 cycles
 SCF Done:  E(RB3LYP) =  -1638.85423048     A.U. after   10 cycles
 SCF Done:  E(RB3LYP) =  -1638.85394239     A.U. after   10 cycles
 SCF Done:  E(RB3LYP) =  -1638.85406373     A.U. after    9 cycles
 SCF Done:  E(RB3LYP) =  -1638.85407465     A.U. after    8 cycles
 SCF Done:  E(RB3LYP) =  -1638.85406711     A.U. after    8 cycles
 SCF Done:  E(RB3LYP) =  -1638.85404826     A.U. after    8 cycles
 SCF Done:  E(RB3LYP) =  -1638.85405273     A.U. after    7 cycles
 Optimization completed.
    -- Stationary point found.
 Normal termination of Gaussian 16 at Mon Sep 21 07:25:22 2020.

 --------------------------------------------------------------------
 #P Geom=AllCheck Guess=TCheck SCRF=Check GenChk RB3LYP/6-31G(d) Freq
 --------------------------------------------------------------------

 Structure from the checkpoint file:  "SM37_m0.n.15.pdb.xyz.mst.n.w.chk"
 --------------------
 SM37_m0.n.15.pdb.xyz
 --------------------
 Charge =  0 Multiplicity = 1

 SCF Done:  E(RB3LYP) =  -1638.85405273     A.U. after    1 cycles

  Exact polarizability: 260.764  -5.002 265.956  43.105  -5.409 218.651
 Approx polarizability: 274.423  -7.007 308.721  55.462 -10.122 253.472

                      1                      2                      3
                      A                      A                      A
 Frequencies --     28.5459                35.8908                41.2720
 Red. masses --      4.6629                 4.3937                 6.0603
 Frc consts  --      0.0022                 0.0033                 0.0061
 IR Inten    --      3.0861                 1.0984                 1.3391

                      4                      5                      6
                      A                      A                      A
 Frequencies --     50.0529                60.7444                73.4828
 Red. masses --      3.7818                 3.7566                 7.7258
 Frc consts  --      0.0056                 0.0082                 0.0246
 IR Inten    --      0.1940                 1.3031                 4.9529

                      7                      8                      9
                      A                      A                      A
 Frequencies --     94.2483               114.8360               159.4832
 Red. masses --      4.0548                 5.0621                 2.1730
 Frc consts  --      0.0212                 0.0393                 0.0326
 IR Inten    --      7.6584                 7.6421                11.2889

                     10                     11                     12
                      A                      A                      A
 Frequencies --    177.7373               195.5691               205.7958
 Red. masses --      3.8550                 1.7560                 2.0635
 Frc consts  --      0.0718                 0.0396                 0.0515
 IR Inten    --      0.5864                 2.7174                 8.9229

                     13                     14                     15
                      A                      A                      A
 Frequencies --    209.9434               229.6947               235.0992
 Red. masses --      3.4767                 1.7019                 4.7142
 Frc consts  --      0.0903                 0.0529                 0.1535
 IR Inten    --      5.6494                13.2047                26.9504

                     16                     17                     18
                      A                      A                      A
 Frequencies --    246.7191               294.2248               316.8255
 Red. masses --      6.1827                 2.6941                 3.1316
 Frc consts  --      0.2217                 0.1374                 0.1852
 IR Inten    --      2.0061                 5.1161                18.4199

                     19                     20                     21
                      A                      A                      A
 Frequencies --    328.5200               334.7685               350.9752
 Red. masses --      2.6214                 3.0765                 2.7624
 Frc consts  --      0.1667                 0.2031                 0.2005
 IR Inten    --      1.5180                 1.4148                12.9637

                     22                     23                     24
                      A                      A                      A
 Frequencies --    361.4678               403.6605               422.2334
 Red. masses --      3.2640                 2.6967                 2.9960
 Frc consts  --      0.2513                 0.2589                 0.3147
 IR Inten    --     11.0911                 1.2243                 0.0442

                     25                     26                     27
                      A                      A                      A
 Frequencies --    452.3430               458.7749               470.4651
 Red. masses --      3.1093                 5.1265                 4.0111
 Frc consts  --      0.3748                 0.6357                 0.5231
 IR Inten    --     13.4869                 9.7359                32.1980

                     28                     29                     30
                      A                      A                      A
 Frequencies --    490.5983               497.0874               546.1508
 Red. masses --      3.6196                 3.7791                 3.8637
 Frc consts  --      0.5133                 0.5502                 0.6790
 IR Inten    --     42.1623                14.7878                21.3633

                     31                     32                     33
                      A                      A                      A
 Frequencies --    562.0545               576.5897               633.9411
 Red. masses --      4.3392                 3.2150                 5.8317
 Frc consts  --      0.8076                 0.6297                 1.3808
 IR Inten    --     34.4284                 7.5743                15.4503

                     34                     35                     36
                      A                      A                      A
 Frequencies --    639.6393               664.0174               685.8884
 Red. masses --      2.6651                 4.5900                 4.6265
 Frc consts  --      0.6424                 1.1924                 1.2823
 IR Inten    --    148.1657                31.4710               109.6048

                     37                     38                     39
                      A                      A                      A
 Frequencies --    718.1925               719.8164               758.0815
 Red. masses --      2.4555                 3.2008                 1.7383
 Frc consts  --      0.7462                 0.9771                 0.5886
 IR Inten    --      4.1791               140.0890                76.3537

                     40                     41                     42
                      A                      A                      A
 Frequencies --    781.1650               803.9320               816.2517
 Red. masses --      2.2517                 2.0132                 3.2058
 Frc consts  --      0.8095                 0.7666                 1.2585
 IR Inten    --      3.9196                 4.6594                 7.0332

                     43                     44                     45
                      A                      A                      A
 Frequencies --    843.2710               871.1886               897.8030
 Red. masses --      2.5703                 1.2475                 2.8295
 Frc consts  --      1.0769                 0.5578                 1.3438
 IR Inten    --     47.2045                 0.7724               243.6347

                     46                     47                     48
                      A                      A                      A
 Frequencies --    915.7992               923.9498               945.8402
 Red. masses --      1.8389                 1.6332                 3.0035
 Frc consts  --      0.9087                 0.8215                 1.5831
 IR Inten    --      2.0660                37.0041               224.6601

                     49                     50                     51
                      A                      A                      A
 Frequencies --    958.5296               984.5746               997.1630
 Red. masses --      1.8670                 1.3555                 2.3474
 Frc consts  --      1.0106                 0.7742                 1.3752
 IR Inten    --     23.6342                 1.4887                25.1683

                     52                     53                     54
                      A                      A                      A
 Frequencies --   1008.3701              1016.8364              1039.0706
 Red. masses --      1.2795                 5.5594                 4.6768
 Frc consts  --      0.7665                 3.3867                 2.9750
 IR Inten    --      1.0062                 0.6041               175.0978

                     55                     56                     57
                      A                      A                      A
 Frequencies --   1053.7021              1061.7943              1069.0613
 Red. masses --      2.3289                 1.8893                 1.5521
 Frc consts  --      1.5235                 1.2549                 1.0451
 IR Inten    --    116.6107                 6.0641                15.6584

                     58                     59                     60
                      A                      A                      A
 Frequencies --   1070.6485              1087.5322              1098.3692
 Red. masses --      1.2808                 2.2051                 6.4168
 Frc consts  --      0.8650                 1.5366                 4.5610
 IR Inten    --     27.7972                 6.6371               275.2649

                     61                     62                     63
                      A                      A                      A
 Frequencies --   1120.0914              1130.3999              1152.6777
 Red. masses --      2.0130                 1.2305                 2.3143
 Frc consts  --      1.4880                 0.9264                 1.8117
 IR Inten    --      9.3956                 2.7274                27.6476

                     64                     65                     66
                      A                      A                      A
 Frequencies --   1171.4010              1187.4707              1194.0259
 Red. masses --      1.3739                 1.0912                 1.3091
 Frc consts  --      1.1107                 0.9066                 1.0997
 IR Inten    --      3.6283                 0.1993                 4.5388

                     67                     68                     69
                      A                      A                      A
 Frequencies --   1208.5021              1221.5695              1221.9976
 Red. masses --      1.1335                 1.8153                 2.6057
 Frc consts  --      0.9753                 1.5960                 2.2925
 IR Inten    --      0.2499                38.9020                10.5707

                     70                     71                     72
                      A                      A                      A
 Frequencies --   1230.7377              1232.1514              1256.6944
 Red. masses --      2.2296                 1.7385                 4.6549
 Frc consts  --      1.9898                 1.5551                 4.3313
 IR Inten    --     12.4312                52.3433               278.4645

                     73                     74                     75
                      A                      A                      A
 Frequencies --   1275.3535              1282.8952              1303.8016
 Red. masses --      2.0298                 2.0963                 1.3459
 Frc consts  --      1.9452                 2.0328                 1.3480
 IR Inten    --     99.4480                51.9359                31.0654

                     76                     77                     78
                      A                      A                      A
 Frequencies --   1351.1961              1363.1820              1387.1134
 Red. masses --      2.4712                 1.8163                 1.4100
 Frc consts  --      2.6582                 1.9886                 1.5984
 IR Inten    --      9.4681                 0.2319                 9.1001

                     79                     80                     81
                      A                      A                      A
 Frequencies --   1406.0835              1447.1900              1451.3099
 Red. masses --      1.4439                 1.1326                 1.1002
 Frc consts  --      1.6819                 1.3975                 1.3654
 IR Inten    --      8.6458                 0.8897                20.9395

                     82                     83                     84
                      A                      A                      A
 Frequencies --   1463.2979              1478.3058              1494.8147
 Red. masses --      1.1534                 1.1475                 1.2260
 Frc consts  --      1.4551                 1.4775                 1.6141
 IR Inten    --      3.8623                52.4201                70.1781

                     85                     86                     87
                      A                      A                      A
 Frequencies --   1500.7608              1501.0702              1506.7088
 Red. masses --      1.5221                 1.2226                 1.0904
 Frc consts  --      2.0198                 1.6230                 1.4585
 IR Inten    --     11.7571                 0.2066                 3.2943

                     88                     89                     90
                      A                      A                      A
 Frequencies --   1512.0849              1513.0409              1517.4172
 Red. masses --      1.0501                 1.0484                 1.0990
 Frc consts  --      1.4146                 1.4141                 1.4909
 IR Inten    --     23.9473                18.8722                16.1579

                     91                     92                     93
                      A                      A                      A
 Frequencies --   1525.1880              1544.6095              1640.9538
 Red. masses --      1.0520                 2.1962                 5.5082
 Frc consts  --      1.4418                 3.0871                 8.7388
 IR Inten    --     11.9479                18.0579                 1.5602

                     94                     95                     96
                      A                      A                      A
 Frequencies --   1661.9596              3051.6579              3058.7709
 Red. masses --      5.5925                 1.0458                 1.0428
 Frc consts  --      9.1011                 5.7382                 5.7484
 IR Inten    --      9.2311                67.5518                74.5875

                     97                     98                     99
                      A                      A                      A
 Frequencies --   3059.8234              3071.0925              3108.4558
 Red. masses --      1.0637                 1.0622                 1.1017
 Frc consts  --      5.8678                 5.9028                 6.2722
 IR Inten    --     29.3910                45.1912                18.2563

                    100                    101                    102
                      A                      A                      A
 Frequencies --   3114.0904              3125.9909              3139.0147
 Red. masses --      1.0987                 1.0592                 1.0930
 Frc consts  --      6.2773                 6.0982                 6.3451
 IR Inten    --     39.0280                 7.6356                48.4676

                    103                    104                    105
                      A                      A                      A
 Frequencies --   3142.5178              3145.4687              3187.7627
 Red. masses --      1.0961                 1.0586                 1.1034
 Frc consts  --      6.3778                 6.1710                 6.6061
 IR Inten    --      8.5709                 8.2458                12.0402

                    106                    107                    108
                      A                      A                      A
 Frequencies --   3190.9056              3195.6751              3199.5627
 Red. masses --      1.0856                 1.1094                 1.0871
 Frc consts  --      6.5127                 6.6753                 6.5568
 IR Inten    --      8.0258                 1.6281                 2.0175

                    109                    110                    111
                      A                      A                      A
 Frequencies --   3203.2901              3204.6569              3211.7902
 Red. masses --      1.1015                 1.0911                 1.0940
 Frc consts  --      6.6592                 6.6019                 6.6490
 IR Inten    --      5.4438                27.9445                59.5223

                    112                    113                    114
                      A                      A                      A
 Frequencies --   3224.0334              3226.0868              3506.2375
 Red. masses --      1.0975                 1.1088                 1.0763
 Frc consts  --      6.7210                 6.7994                 7.7955
 IR Inten    --     34.2859                 5.4850               105.4685

 - Thermochemistry -
 -------------------
 Temperature   298.150 Kelvin.  Pressure   1.00000 Atm.
 Atom     1 has atomic number  8 and mass  15.99491

 Molecular mass:   316.09154 amu.
 Principal axes and moments of inertia in atomic units:
                           1         2         3
     Eigenvalues --  3515.90089********************
           X            1.00000  -0.00171  -0.00154
           Y            0.00172   0.99999   0.00474
           Z            0.00153  -0.00475   0.99999
 This molecule is an asymmetric top.
 Rotational symmetry number  1.
 Warning -- assumption of classical behavior for rotation
           may cause significant error
 Rotational temperatures (Kelvin)      0.02463     0.00783     0.00683
 Rotational constants (GHZ):           0.51331     0.16308     0.14222
 Zero-point vibrational energy     860792.2 (Joules/Mol)
                                  205.73428 (Kcal/Mol)
 Warning -- explicit consideration of  32 degrees of freedom as
           vibrations may cause significant error
 Vibrational temperatures:     41.07    51.64    59.38    72.01    87.40
          (Kelvin)            105.73   135.60   165.22   229.46   255.72
                              281.38   296.09   302.06   330.48   338.26
                              354.97   423.32   455.84   472.67   481.66
                              504.98   520.07   580.78   607.50   650.82
                              660.07   676.89   705.86   715.20   785.79
                              808.67   829.58   912.10   920.30   955.37
                              986.84  1033.32  1035.66  1090.71  1123.92
                             1156.68  1174.40  1213.28  1253.45  1291.74
                             1317.63  1329.36  1360.85  1379.11  1416.58
                             1434.70  1450.82  1463.00  1494.99  1516.04
                             1527.69  1538.14  1540.42  1564.72  1580.31
                             1611.56  1626.39  1658.45  1685.38  1708.51
                             1717.94  1738.76  1757.57  1758.18  1770.76
                             1772.79  1808.10  1834.95  1845.80  1875.88
                             1944.07  1961.31  1995.75  2023.04  2082.18
                             2088.11  2105.36  2126.95  2150.70  2159.26
                             2159.71  2167.82  2175.55  2176.93  2183.22
                             2194.41  2222.35  2360.97  2391.19  4390.66
                             4400.89  4402.40  4418.62  4472.37  4480.48
                             4497.60  4516.34  4521.38  4525.63  4586.48
                             4591.00  4597.86  4603.46  4608.82  4610.79
                             4621.05  4638.66  4641.62  5044.69

 Zero-point correction=                           0.327858 (Hartree/Particle)
 Thermal correction to Energy=                    0.348370
 Thermal correction to Enthalpy=                  0.349314
 Thermal correction to Gibbs Free Energy=         0.277469
 Sum of electronic and zero-point Energies=          -1638.526194
 Sum of electronic and thermal Energies=             -1638.505682
 Sum of electronic and thermal Enthalpies=           -1638.504738
 Sum of electronic and thermal Free Energies=        -1638.576584

                     E (Thermal)             CV                S
                      KCal/Mol        Cal/Mol-Kelvin    Cal/Mol-Kelvin
 Total                  218.606             78.326            151.212
 Electronic               0.000              0.000              0.000
 Translational            0.889              2.981             43.148
 Rotational               0.889              2.981             34.556
 Vibrational            216.828             72.364             73.508
 Vibration     1          0.593              1.984              5.928
 Vibration     2          0.594              1.982              5.474
 Vibration     3          0.594              1.981              5.197
 Vibration     4          0.595              1.978              4.815
 Vibration     5          0.597              1.973              4.433
 Vibration     6          0.599              1.967              4.058
 Vibration     7          0.603              1.953              3.570
 Vibration     8          0.608              1.937              3.185
 Vibration     9          0.621              1.892              2.556
 Vibration    10          0.628              1.870              2.352
 Vibration    11          0.636              1.846              2.174
 Vibration    12          0.640              1.832              2.081
 Vibration    13          0.642              1.826              2.044
 Vibration    14          0.652              1.796              1.881
 Vibration    15          0.655              1.787              1.840
 Vibration    16          0.661              1.768              1.754
 Vibration    17          0.689              1.685              1.450
 Vibration    18          0.704              1.641              1.326
 Vibration    19          0.712              1.619              1.267
 Vibration    20          0.716              1.606              1.237
 Vibration    21          0.728              1.573              1.162
 Vibration    22          0.736              1.552              1.116
 Vibration    23          0.769              1.462              0.949
 Vibration    24          0.785              1.422              0.884
 Vibration    25          0.811              1.356              0.789
 Vibration    26          0.817              1.341              0.770
 Vibration    27          0.827              1.316              0.736
 Vibration    28          0.846              1.271              0.682
 Vibration    29          0.853              1.256              0.665
 Vibration    30          0.901              1.148              0.552
 Vibration    31          0.918              1.113              0.520
 Vibration    32          0.933              1.082              0.492

                           ! Non-Optimized Parameters !
 Normal termination of Gaussian 16 at Mon Sep 21 07:41:23 2020.

 ----------------------------------------------------------------------
 #p b3lyp/6-31G(d) scrf=(iefpcm,read,solvent=water) geom=allcheck guess
 =read
 ----------------------------------------------------------------------

 Structure from the checkpoint file:  "SM37_m0.n.15.pdb.xyz.mst.n.w.chk"
 --------------------
 SM37_m0.n.15.pdb.xyz
 --------------------
 Charge =  0 Multiplicity = 1

 SCF Done:  E(RB3LYP) =  -1638.85403350     A.U. after    6 cycles
 Normal termination of Gaussian 16 at Mon Sep 21 07:42:11 2020.

 -----------------------------
 #p B3LYP/6-31G* geom=allcheck
 -----------------------------

 Structure from the checkpoint file:  "SM37_m0.n.15.pdb.xyz.mst.n.w.chk"
 --------------------
 SM37_m0.n.15.pdb.xyz
 --------------------
 Charge =  0 Multiplicity = 1

 SCF Done:  E(RB3LYP) =  -1638.83010221     A.U. after   15 cycles
 Normal termination of Gaussian 16 at Mon Sep 21 07:43:18 2020.
 Gaussian 16:  ES64L-G16RevB.01 20-Dec-2017

 ----------------------------------------------------------------------
 #p mp2/aug-cc-pVDZ scf=(MaxCycle=2000,NoVarAcc,NoIncFock) maxdisk=120G
 B geom=allcheck
 ----------------------------------------------------------------------

 Structure from the checkpoint file:  "SM37_m0.n.15.pdb.xyz.mst.n.w.chk"
 --------------------
 SM37_m0.n.15.pdb.xyz
 --------------------
 Charge =  0 Multiplicity = 1

                         Standard orientation:
 ---------------------------------------------------------------------
 Center     Atomic      Atomic             Coordinates (Angstroms)
 Number     Number       Type             X           Y           Z
 ---------------------------------------------------------------------
      1          8           0        2.520005    0.732153   -1.134312
      2         16           0        2.862064   -0.035546    0.077159
      3          7           0        1.404499   -0.596762    0.673295
      4          6           0        0.212869    0.285488    0.654793
      5          6           0       -0.330642    0.505191   -0.781264
      6         16           0       -0.046307    2.350754   -0.729753
      7          8           0       -1.382749    3.087300   -0.634453
      8          6           0        0.474866    1.786357    0.970505
      9          6           0       -0.784629   -0.361781    1.632983
     10          6           0       -2.204460    0.244739    1.645900
     11          6           0       -3.199512   -0.396460    0.696809
     12          6           0       -3.449196   -1.775789    0.743537
     13          6           0       -4.395874   -2.362475   -0.096496
     14          6           0       -5.113837   -1.576616   -1.002275
     15          6           0       -4.873795   -0.203228   -1.060439
     16          6           0       -3.924537    0.379555   -0.217169
     17          7           0        3.603516   -1.497494   -0.223204
     18          6           0        3.028013   -2.280923   -1.326301
     19          6           0        5.075284   -1.487895   -0.182225
     20          8           0        3.680403    0.646668    1.092194
     21          1           0        1.564245   -1.040612    1.579116
     22          1           0       -1.395240    0.304651   -0.896978
     23          1           0        0.248870    0.039836   -1.574079
     24          1           0       -0.207267    2.215257    1.706087
     25          1           0        1.500782    2.059756    1.213756
     26          1           0       -0.351037   -0.273719    2.635518
     27          1           0       -0.848209   -1.430842    1.406735
     28          1           0       -2.163515    1.320904    1.449869
     29          1           0       -2.589821    0.141880    2.666347
     30          1           0       -2.898941   -2.394408    1.446165
     31          1           0       -4.575025   -3.432483   -0.042656
     32          1           0       -5.850453   -2.031728   -1.656587
     33          1           0       -5.421891    0.416456   -1.762648
     34          1           0       -3.728077    1.446128   -0.275647
     35          1           0        1.942746   -2.292219   -1.233521
     36          1           0        3.400765   -3.302414   -1.230018
     37          1           0        3.313447   -1.884852   -2.307674
     38          1           0        5.407718   -0.928286    0.689227
     39          1           0        5.514549   -1.056807   -1.089768
     40          1           0        5.399568   -2.525990   -0.089938
 ---------------------------------------------------------------------

 SCF Done:  E(RHF) =  -1632.39877397     A.U. after   16 cycles
 E2 =    -0.3120044899D+01 EUMP2 =    -0.16355188188699D+04

 The electronic state is 1-A.
 Alpha  occ. eigenvalues --  -92.25377 -92.06409 -20.57106 -20.57066 -20.50931
 Alpha  occ. eigenvalues --  -15.62728 -15.62714 -11.32425 -11.29046 -11.28669
 Alpha  occ. eigenvalues --  -11.27047 -11.26523 -11.26173 -11.25200 -11.24932
 Alpha  occ. eigenvalues --  -11.24640 -11.24329 -11.24313 -11.24171 -11.23676
 Alpha  occ. eigenvalues --   -9.21904  -9.05232  -6.90447  -6.90410  -6.90372
 Alpha  occ. eigenvalues --   -6.73434  -6.73310  -6.73173  -1.48042  -1.34919
 Alpha  occ. eigenvalues --   -1.31532  -1.27587  -1.25575  -1.16106  -1.12769
 Alpha  occ. eigenvalues --   -1.07160  -1.01745  -1.01079  -0.99366  -0.96869
 Alpha  occ. eigenvalues --   -0.95057  -0.91484  -0.85266  -0.82965  -0.82698
 Alpha  occ. eigenvalues --   -0.79561  -0.76554  -0.74340  -0.71322  -0.70456
 Alpha  occ. eigenvalues --   -0.69741  -0.67883  -0.65655  -0.64917  -0.64191
 Alpha  occ. eigenvalues --   -0.63428  -0.62610  -0.61854  -0.60931  -0.59038
 Alpha  occ. eigenvalues --   -0.58667  -0.58202  -0.58058  -0.57257  -0.55992
 Alpha  occ. eigenvalues --   -0.55344  -0.54642  -0.54085  -0.53460  -0.51424
 Alpha  occ. eigenvalues --   -0.51159  -0.50449  -0.50038  -0.49789  -0.48718
 Alpha  occ. eigenvalues --   -0.48328  -0.48031  -0.47095  -0.43814  -0.41809
 Alpha  occ. eigenvalues --   -0.39253  -0.35378  -0.33801  -0.32874
 Alpha virt. eigenvalues --    0.02212   0.03135   0.03365   0.04167   0.04464
 Alpha virt. eigenvalues --    0.04818   0.05134   0.05347   0.05924   0.06304
 Alpha virt. eigenvalues --    0.06930   0.07211   0.07392   0.07469   0.08254

 Mulliken charges:
               1
     1  O   -1.272596
     2  S    3.218091
     3  N   -1.255010
     4  C    1.222909
     5  C    0.017617
     6  S    1.541753
     7  O   -1.264766
     8  C    0.084899
     9  C    1.042762
    10  C    0.252247
    11  C    0.769434
    12  C    0.516576
    13  C    0.038779
    14  C    0.749906
    15  C    0.061902
    16  C    0.838057
    17  N   -1.187264
    18  C    0.752252
    19  C    0.823389
    20  O   -1.195454
    21  H   -0.078724
    22  H   -0.447312
    23  H   -0.335897
    24  H   -0.332571
    25  H   -0.340286
    26  H   -0.123784
    27  H   -0.191329
    28  H   -0.281281
    29  H   -0.138166
    30  H   -0.696153
    31  H   -0.497535
    32  H   -0.447978
    33  H   -0.470277
    34  H   -0.701520
    35  H   -0.160833
    36  H   -0.179100
    37  H   -0.015192
    38  H   -0.147088
    39  H   -0.028209
    40  H   -0.142248
 Sum of Mulliken charges =  -0.00000

 Dipole moment (field-independent basis, Debye):
    X=              1.9153    Y=             -7.5483    Z=              1.6455  Tot=              7.9595
 Quadrupole moment (field-independent basis, Debye-Ang):
   XX=           -134.4827   YY=           -143.5854   ZZ=           -132.2772
   XY=             -5.8694   XZ=             -2.1417   YZ=              6.2657

 Normal termination of Gaussian 16 at Mon Sep 21 09:08:07 2020.
