 Gaussian 16, Revision B.01,

 ----------------------------------------------------------------------
 #p b3lyp/6-31G(d) opt freq NoSymm scf=(MaxCycle=2000,NoVarAcc,NoIncFoc
 k) scrf=(iefpcm,read,solvent=water)
 ----------------------------------------------------------------------

 --------------------
 SM37_m0.n.14.pdb.xyz
 --------------------
 Symbolic Z-matrix:
 Charge =  0 Multiplicity = 1

 SCF Done:  E(RB3LYP) =  -1638.85643351     A.U. after   13 cycles
 SCF Done:  E(RB3LYP) =  -1638.85631638     A.U. after   10 cycles
 SCF Done:  E(RB3LYP) =  -1638.85616894     A.U. after   10 cycles
 SCF Done:  E(RB3LYP) =  -1638.85645036     A.U. after   10 cycles
 SCF Done:  E(RB3LYP) =  -1638.85639369     A.U. after    9 cycles
 SCF Done:  E(RB3LYP) =  -1638.85639995     A.U. after    9 cycles
 SCF Done:  E(RB3LYP) =  -1638.85644853     A.U. after   10 cycles
 SCF Done:  E(RB3LYP) =  -1638.85645082     A.U. after    8 cycles
 SCF Done:  E(RB3LYP) =  -1638.85641135     A.U. after   10 cycles
 SCF Done:  E(RB3LYP) =  -1638.85644486     A.U. after    9 cycles
 SCF Done:  E(RB3LYP) =  -1638.85647948     A.U. after    8 cycles
 SCF Done:  E(RB3LYP) =  -1638.85647196     A.U. after    8 cycles
 SCF Done:  E(RB3LYP) =  -1638.85647556     A.U. after    7 cycles
 SCF Done:  E(RB3LYP) =  -1638.85647502     A.U. after    7 cycles
 SCF Done:  E(RB3LYP) =  -1638.85647440     A.U. after    6 cycles
 SCF Done:  E(RB3LYP) =  -1638.85647379     A.U. after    6 cycles
 Optimization completed.
    -- Stationary point found.
 Normal termination of Gaussian 16 at Mon Sep 21 07:04:13 2020.

 --------------------------------------------------------------------
 #P Geom=AllCheck Guess=TCheck SCRF=Check GenChk RB3LYP/6-31G(d) Freq
 --------------------------------------------------------------------

 Structure from the checkpoint file:  "SM37_m0.n.14.pdb.xyz.mst.n.w.chk"
 --------------------
 SM37_m0.n.14.pdb.xyz
 --------------------
 Charge =  0 Multiplicity = 1

 SCF Done:  E(RB3LYP) =  -1638.85647379     A.U. after    1 cycles

  Exact polarizability: 291.971 -40.770 210.157  -1.622  -5.131 246.743
 Approx polarizability: 315.351 -46.289 236.798   1.820  -8.015 291.672

                      1                      2                      3
                      A                      A                      A
 Frequencies --     12.8299                23.1113                30.1477
 Red. masses --      4.7600                 4.6322                 3.7877
 Frc consts  --      0.0005                 0.0015                 0.0020
 IR Inten    --      4.2524                 0.2452                 0.4864

                      4                      5                      6
                      A                      A                      A
 Frequencies --     37.6741                56.2156                72.6658
 Red. masses --      6.0506                 3.0319                 6.3737
 Frc consts  --      0.0051                 0.0056                 0.0198
 IR Inten    --      1.1780                 1.7700                 9.9414

                      7                      8                      9
                      A                      A                      A
 Frequencies --     82.8764                97.7522               151.4331
 Red. masses --      4.1278                 5.1818                 3.3725
 Frc consts  --      0.0167                 0.0292                 0.0456
 IR Inten    --      8.4744                 2.3637                 4.0558

                     10                     11                     12
                      A                      A                      A
 Frequencies --    176.6037               177.6304               184.4472
 Red. masses --      5.5303                 4.6455                 1.2419
 Frc consts  --      0.1016                 0.0864                 0.0249
 IR Inten    --      8.4098                 1.9900                 1.5746

                     13                     14                     15
                      A                      A                      A
 Frequencies --    209.5704               214.6907               257.8630
 Red. masses --      4.5715                 1.1145                 3.6750
 Frc consts  --      0.1183                 0.0303                 0.1440
 IR Inten    --     16.1668                 1.0481                 3.2068

                     16                     17                     18
                      A                      A                      A
 Frequencies --    268.4568               290.0357               314.1274
 Red. masses --      4.5920                 4.3185                 3.4892
 Frc consts  --      0.1950                 0.2140                 0.2029
 IR Inten    --      1.1378                11.7653                 1.3234

                     19                     20                     21
                      A                      A                      A
 Frequencies --    325.1325               341.6090               355.6148
 Red. masses --      2.0579                 3.1412                 2.2860
 Frc consts  --      0.1282                 0.2160                 0.1703
 IR Inten    --      0.0796                 6.9610                 8.7150

                     22                     23                     24
                      A                      A                      A
 Frequencies --    363.4961               388.8178               401.9719
 Red. masses --      3.5741                 2.5938                 2.5051
 Frc consts  --      0.2782                 0.2310                 0.2385
 IR Inten    --     44.8989                 3.3993                 0.3231

                     25                     26                     27
                      A                      A                      A
 Frequencies --    417.9166               468.0099               473.8874
 Red. masses --      2.9481                 5.5885                 3.5028
 Frc consts  --      0.3034                 0.7212                 0.4635
 IR Inten    --      0.0859                 7.4812                23.8597

                     28                     29                     30
                      A                      A                      A
 Frequencies --    493.4014               506.2330               549.2840
 Red. masses --      4.2712                 3.8887                 5.2689
 Frc consts  --      0.6126                 0.5872                 0.9366
 IR Inten    --     14.9127                 7.3251                74.7184

                     31                     32                     33
                      A                      A                      A
 Frequencies --    562.5099               578.2610               614.0893
 Red. masses --      6.1901                 2.6885                 3.1266
 Frc consts  --      1.1540                 0.5297                 0.6947
 IR Inten    --     99.9289                24.6250                81.4542

                     34                     35                     36
                      A                      A                      A
 Frequencies --    634.4292               642.6536               685.8619
 Red. masses --      6.3322                 4.4221                 4.8566
 Frc consts  --      1.5017                 1.0760                 1.3460
 IR Inten    --      1.0982                52.1585               160.2396

                     37                     38                     39
                      A                      A                      A
 Frequencies --    715.2514               727.0057               747.4185
 Red. masses --      2.2628                 4.0183                 1.9624
 Frc consts  --      0.6820                 1.2513                 0.6459
 IR Inten    --     17.2844                85.9974                82.1721

                     40                     41                     42
                      A                      A                      A
 Frequencies --    772.9399               790.7501               820.6019
 Red. masses --      1.8909                 3.6438                 1.8110
 Frc consts  --      0.6656                 1.3424                 0.7185
 IR Inten    --     29.0364                10.5200                19.3363

                     43                     44                     45
                      A                      A                      A
 Frequencies --    830.8326               867.2731               892.8889
 Red. masses --      2.5463                 1.2509                 2.6483
 Frc consts  --      1.0356                 0.5544                 1.2440
 IR Inten    --    143.6462                 0.2288                86.8031

                     46                     47                     48
                      A                      A                      A
 Frequencies --    918.3518               936.6194               954.8334
 Red. masses --      1.5034                 2.2031                 2.2465
 Frc consts  --      0.7470                 1.1387                 1.2067
 IR Inten    --     18.4823               147.3773                96.9457

                     49                     50                     51
                      A                      A                      A
 Frequencies --    958.1739               981.1935               985.8350
 Red. masses --      2.5911                 1.3606                 2.1288
 Frc consts  --      1.4016                 0.7718                 1.2190
 IR Inten    --     76.0641                 0.0916                19.9424

                     52                     53                     54
                      A                      A                      A
 Frequencies --   1008.2401              1016.8131              1034.0991
 Red. masses --      1.2603                 6.1466                 3.8590
 Frc consts  --      0.7548                 3.7443                 2.4314
 IR Inten    --      0.3372                 0.4986               123.2782

                     55                     56                     57
                      A                      A                      A
 Frequencies --   1055.3643              1056.4120              1072.6514
 Red. masses --      1.2587                 2.0970                 2.5822
 Frc consts  --      0.8260                 1.3789                 1.7504
 IR Inten    --      6.4524                 7.9721               115.7104

                     58                     59                     60
                      A                      A                      A
 Frequencies --   1074.9490              1088.2465              1099.9977
 Red. masses --      1.5336                 2.0043                 4.4773
 Frc consts  --      1.0441                 1.3985                 3.1919
 IR Inten    --     21.2149                 4.1597               214.3824

                     61                     62                     63
                      A                      A                      A
 Frequencies --   1124.8334              1134.7536              1138.1372
 Red. masses --      1.8731                 3.3708                 1.2280
 Frc consts  --      1.3963                 2.5573                 0.9372
 IR Inten    --     32.8102                97.5910                 3.0224

                     64                     65                     66
                      A                      A                      A
 Frequencies --   1185.3044              1188.9359              1191.8330
 Red. masses --      1.3526                 1.0983                 1.2949
 Frc consts  --      1.1197                 0.9147                 1.0837
 IR Inten    --      1.3645                 0.3164                 4.2576

                     67                     68                     69
                      A                      A                      A
 Frequencies --   1205.2314              1219.5411              1229.2980
 Red. masses --      1.1350                 1.5022                 4.0105
 Frc consts  --      0.9714                 1.3163                 3.5708
 IR Inten    --      0.4211                12.3074                18.0941

                     70                     71                     72
                      A                      A                      A
 Frequencies --   1231.6304              1245.4235              1259.2655
 Red. masses --      2.4085                 1.4344                 2.3054
 Frc consts  --      2.1526                 1.3109                 2.1539
 IR Inten    --      1.1635                30.6642                76.7306

                     73                     74                     75
                      A                      A                      A
 Frequencies --   1288.5025              1292.5148              1330.4740
 Red. masses --      3.1997                 2.9031                 1.3344
 Frc consts  --      3.1299                 2.8575                 1.3917
 IR Inten    --    203.7899               202.8060                76.3633

                     76                     77                     78
                      A                      A                      A
 Frequencies --   1352.0427              1361.3059              1403.9325
 Red. masses --      2.4595                 1.8349                 1.4305
 Frc consts  --      2.6489                 2.0034                 1.6612
 IR Inten    --      1.7090                 0.1913                 5.9798

                     79                     80                     81
                      A                      A                      A
 Frequencies --   1418.0333              1448.1323              1455.6857
 Red. masses --      1.3167                 1.0994                 1.1451
 Frc consts  --      1.5599                 1.3584                 1.4296
 IR Inten    --      5.3956                21.2822                 3.7549

                     82                     83                     84
                      A                      A                      A
 Frequencies --   1468.2388              1475.8552              1480.4963
 Red. masses --      1.1490                 1.1435                 1.2055
 Frc consts  --      1.4594                 1.4674                 1.5568
 IR Inten    --     35.0808                 2.6832                37.7118

                     85                     86                     87
                      A                      A                      A
 Frequencies --   1498.8029              1504.2190              1505.5476
 Red. masses --      2.0110                 1.0447                 1.0923
 Frc consts  --      2.6617                 1.3927                 1.4588
 IR Inten    --      4.9173                 6.3364                 8.5689

                     88                     89                     90
                      A                      A                      A
 Frequencies --   1511.5930              1516.0278              1517.0369
 Red. masses --      1.0487                 1.1219                 1.0518
 Frc consts  --      1.4117                 1.5193                 1.4262
 IR Inten    --     14.8137                13.2586                41.0678

                     91                     92                     93
                      A                      A                      A
 Frequencies --   1542.6683              1543.6652              1640.1332
 Red. masses --      1.8770                 1.1530                 5.4863
 Frc consts  --      2.6318                 1.6188                 8.6953
 IR Inten    --     18.0378                15.1988                 1.5046

                     94                     95                     96
                      A                      A                      A
 Frequencies --   1662.4178              3057.9996              3062.4428
 Red. masses --      5.6670                 1.0436                 1.0436
 Frc consts  --      9.2275                 5.7500                 5.7668
 IR Inten    --      6.7761                43.5401                76.9218

                     97                     98                     99
                      A                      A                      A
 Frequencies --   3062.9181              3073.4096              3104.6969
 Red. masses --      1.0628                 1.0641                 1.0986
 Frc consts  --      5.8746                 5.9223                 6.2389
 IR Inten    --     40.7186                16.6734                44.2032

                    100                    101                    102
                      A                      A                      A
 Frequencies --   3125.6507              3127.3078              3129.9188
 Red. masses --      1.0683                 1.0823                 1.0652
 Frc consts  --      6.1493                 6.2362                 6.1481
 IR Inten    --     21.2469                 4.0743                 9.0555

                    103                    104                    105
                      A                      A                      A
 Frequencies --   3141.8057              3145.5442              3192.9385
 Red. masses --      1.0944                 1.0967                 1.0860
 Frc consts  --      6.3646                 6.3931                 6.5233
 IR Inten    --     47.7388                13.0582                10.4216

                    106                    107                    108
                      A                      A                      A
 Frequencies --   3194.1263              3195.0851              3197.0326
 Red. masses --      1.1027                 1.0878                 1.1104
 Frc consts  --      6.6287                 6.5426                 6.6868
 IR Inten    --      8.3309                10.6362                 3.7522

                    109                    110                    111
                      A                      A                      A
 Frequencies --   3203.4065              3203.9788              3205.0570
 Red. masses --      1.0901                 1.1013                 1.1100
 Frc consts  --      6.5910                 6.6608                 6.7182
 IR Inten    --     21.0920                 6.2264                 2.8136

                    112                    113                    114
                      A                      A                      A
 Frequencies --   3213.3579              3223.6880              3454.7428
 Red. masses --      1.0940                 1.0976                 1.0765
 Frc consts  --      6.6558                 6.7203                 7.5697
 IR Inten    --     66.7626                28.6449               291.2983

 - Thermochemistry -
 -------------------
 Temperature   298.150 Kelvin.  Pressure   1.00000 Atm.
 Atom     1 has atomic number  8 and mass  15.99491

 Molecular mass:   316.09154 amu.
 Principal axes and moments of inertia in atomic units:
                           1         2         3
     Eigenvalues --  4951.248557359.38938**********
           X            0.99954   0.02475   0.01747
           Y           -0.02503   0.99956   0.01600
           Z           -0.01707  -0.01643   0.99972
 This molecule is an asymmetric top.
 Rotational symmetry number  1.
 Warning -- assumption of classical behavior for rotation
           may cause significant error
 Rotational temperatures (Kelvin)      0.01749     0.01177     0.00826
 Rotational constants (GHZ):           0.36450     0.24523     0.17215
 Zero-point vibrational energy     859843.9 (Joules/Mol)
                                  205.50762 (Kcal/Mol)
 Warning -- explicit consideration of  33 degrees of freedom as
           vibrations may cause significant error
 Vibrational temperatures:     18.46    33.25    43.38    54.20    80.88
          (Kelvin)            104.55   119.24   140.64   217.88   254.09
                              255.57   265.38   301.53   308.89   371.01
                              386.25   417.30   451.96   467.79   491.50
                              511.65   522.99   559.42   578.35   601.29
                              673.36   681.82   709.89   728.36   790.30
                              809.33   831.99   883.54   912.80   924.64
                              986.80  1029.09  1046.00  1075.37  1112.09
                             1137.71  1180.66  1195.38  1247.81  1284.67
                             1321.30  1347.59  1373.79  1378.60  1411.72
                             1418.40  1450.63  1462.97  1487.84  1518.43
                             1519.94  1543.31  1546.61  1565.74  1582.65
                             1618.38  1632.66  1637.53  1705.39  1710.61
                             1714.78  1734.06  1754.65  1768.69  1772.04
                             1791.89  1811.80  1853.87  1859.64  1914.26
                             1945.29  1958.62  2019.95  2040.23  2083.54
                             2094.41  2112.47  2123.43  2130.10  2156.44
                             2164.24  2166.15  2174.85  2181.23  2182.68
                             2219.56  2220.99  2359.79  2391.85  4399.78
                             4406.17  4406.86  4421.95  4466.97  4497.11
                             4499.50  4503.26  4520.36  4525.74  4593.93
                             4595.64  4597.01  4599.82  4608.99  4609.81
                             4611.36  4623.31  4638.17  4970.60

 Zero-point correction=                           0.327497 (Hartree/Particle)
 Thermal correction to Energy=                    0.348293
 Thermal correction to Enthalpy=                  0.349238
 Thermal correction to Gibbs Free Energy=         0.275170
 Sum of electronic and zero-point Energies=          -1638.528977
 Sum of electronic and thermal Energies=             -1638.508180
 Sum of electronic and thermal Enthalpies=           -1638.507236
 Sum of electronic and thermal Free Energies=        -1638.581304

                     E (Thermal)             CV                S
                      KCal/Mol        Cal/Mol-Kelvin    Cal/Mol-Kelvin
 Total                  218.557             78.552            155.888
 Electronic               0.000              0.000              0.000
 Translational            0.889              2.981             43.148
 Rotational               0.889              2.981             34.301
 Vibrational            216.780             72.591             78.439
 Vibration     1          0.593              1.987              7.516
 Vibration     2          0.593              1.985              6.347
 Vibration     3          0.594              1.984              5.820
 Vibration     4          0.594              1.982              5.378
 Vibration     5          0.596              1.975              4.586
 Vibration     6          0.599              1.967              4.080
 Vibration     7          0.600              1.961              3.822
 Vibration     8          0.603              1.951              3.499
 Vibration     9          0.619              1.901              2.654
 Vibration    10          0.628              1.871              2.364
 Vibration    11          0.628              1.870              2.353
 Vibration    12          0.631              1.861              2.283
 Vibration    13          0.642              1.826              2.047
 Vibration    14          0.645              1.819              2.003
 Vibration    15          0.667              1.749              1.676
 Vibration    16          0.673              1.731              1.606
 Vibration    17          0.686              1.692              1.474
 Vibration    18          0.702              1.647              1.340
 Vibration    19          0.709              1.625              1.284
 Vibration    20          0.721              1.592              1.205
 Vibration    21          0.731              1.564              1.141
 Vibration    22          0.737              1.547              1.107
 Vibration    23          0.757              1.494              1.005
 Vibration    24          0.768              1.466              0.955
 Vibration    25          0.781              1.431              0.899
 Vibration    26          0.825              1.321              0.743
 Vibration    27          0.831              1.308              0.727
 Vibration    28          0.849              1.265              0.675
 Vibration    29          0.861              1.236              0.643
 Vibration    30          0.905              1.141              0.546
 Vibration    31          0.918              1.112              0.519
 Vibration    32          0.935              1.078              0.489
 Vibration    33          0.973              1.002              0.426

 Optimization completed.
    -- Stationary point found.
 Normal termination of Gaussian 16 at Mon Sep 21 07:22:15 2020.

 ----------------------------------------------------------------------
 #p b3lyp/6-31G(d) scrf=(iefpcm,read,solvent=water) geom=allcheck guess
 =read
 ----------------------------------------------------------------------

 Structure from the checkpoint file:  "SM37_m0.n.14.pdb.xyz.mst.n.w.chk"
 --------------------
 SM37_m0.n.14.pdb.xyz
 --------------------
 Charge =  0 Multiplicity = 1

 SCF Done:  E(RB3LYP) =  -1638.85646657     A.U. after    7 cycles
 Normal termination of Gaussian 16 at Mon Sep 21 07:23:15 2020.

 -----------------------------
 #p B3LYP/6-31G* geom=allcheck
 -----------------------------

 Structure from the checkpoint file:  "SM37_m0.n.14.pdb.xyz.mst.n.w.chk"
 --------------------
 SM37_m0.n.14.pdb.xyz
 --------------------
 Charge =  0 Multiplicity = 1

 SCF Done:  E(RB3LYP) =  -1638.83447431     A.U. after   15 cycles

 The electronic state is 1-A.
 Alpha  occ. eigenvalues --  -89.13139 -88.97789 -19.14568 -19.14446 -19.10482
 Alpha  occ. eigenvalues --  -14.38143 -14.37127 -10.26406 -10.23150 -10.22904
 Alpha  occ. eigenvalues --  -10.21300 -10.21262 -10.20911 -10.20662 -10.20544
 Alpha  occ. eigenvalues --  -10.20516 -10.20474 -10.20448 -10.20362 -10.20169
 Alpha  occ. eigenvalues --   -8.15377  -8.02594  -6.11847  -6.11809  -6.11776
 Alpha  occ. eigenvalues --   -5.98996  -5.98829  -5.98373  -1.12331  -1.00274
 Alpha  occ. eigenvalues --   -0.99315  -0.95082  -0.93561  -0.87143  -0.84218
 Alpha  occ. eigenvalues --   -0.80081  -0.75914  -0.74788  -0.73627  -0.71834
 Alpha  occ. eigenvalues --   -0.69945  -0.67722  -0.63023  -0.61862  -0.60963
 Alpha  occ. eigenvalues --   -0.59080  -0.55827  -0.54957  -0.52602  -0.51763
 Alpha  occ. eigenvalues --   -0.50686  -0.49131  -0.48044  -0.47696  -0.46954
 Alpha  occ. eigenvalues --   -0.46335  -0.45810  -0.44158  -0.44000  -0.43467
 Alpha  occ. eigenvalues --   -0.43399  -0.41974  -0.41882  -0.40886  -0.39770
 Alpha  occ. eigenvalues --   -0.39661  -0.39327  -0.38733  -0.38101  -0.36634
 Alpha  occ. eigenvalues --   -0.36333  -0.35020  -0.34877  -0.34649  -0.34027
 Alpha  occ. eigenvalues --   -0.33003  -0.31617  -0.30313  -0.27985  -0.26715
 Alpha  occ. eigenvalues --   -0.26400  -0.25731  -0.25018  -0.22236
 Alpha virt. eigenvalues --   -0.02040  -0.01654   0.01425   0.03810   0.05494
 Alpha virt. eigenvalues --    0.06618   0.07334   0.07738   0.08061   0.09475
 Alpha virt. eigenvalues --    0.09561   0.10161   0.10715   0.11683   0.12549

 Mulliken charges:
               1
     1  O   -0.573374
     2  S    1.341025
     3  N   -0.737138
     4  C    0.218052
     5  C   -0.479504
     6  S    0.749954
     7  O   -0.628479
     8  C   -0.493966
     9  C   -0.321266
    10  C   -0.355509
    11  C    0.117748
    12  C   -0.185418
    13  C   -0.124927
    14  C   -0.135810
    15  C   -0.130294
    16  C   -0.174342
    17  N   -0.502916
    18  C   -0.336357
    19  C   -0.322442
    20  O   -0.544556
    21  H    0.363408
    22  H    0.188307
    23  H    0.225341
    24  H    0.192569
    25  H    0.222635
    26  H    0.150252
    27  H    0.198894
    28  H    0.169696
    29  H    0.153632
    30  H    0.141679
    31  H    0.140553
    32  H    0.136006
    33  H    0.136394
    34  H    0.134060
    35  H    0.209137
    36  H    0.171414
    37  H    0.158056
    38  H    0.201416
    39  H    0.157913
    40  H    0.168157
 Sum of Mulliken charges =  -0.00000

 Dipole moment (field-independent basis, Debye):
    X=             -6.1420    Y=              0.2865    Z=              2.6561  Tot=              6.6978
 Quadrupole moment (field-independent basis, Debye-Ang):
   XX=           -140.3663   YY=           -141.2803   ZZ=           -128.5106
   XY=              3.2115   XZ=             -1.5326   YZ=              8.3051

 Normal termination of Gaussian 16 at Mon Sep 21 07:24:29 2020.
 Gaussian 16:  ES64L-G16RevB.01 20-Dec-2017

 ----------------------------------------------------------------------
 #p mp2/aug-cc-pVDZ scf=(MaxCycle=2000,NoVarAcc,NoIncFock) maxdisk=120G
 B geom=allcheck
 ----------------------------------------------------------------------

 Structure from the checkpoint file:  "SM37_m0.n.14.pdb.xyz.mst.n.w.chk"
 --------------------
 SM37_m0.n.14.pdb.xyz
 --------------------
 Charge =  0 Multiplicity = 1

                         Standard orientation:
 ---------------------------------------------------------------------
 Center     Atomic      Atomic             Coordinates (Angstroms)
 Number     Number       Type             X           Y           Z
 ---------------------------------------------------------------------
      1          8           0        1.486790    2.566288   -0.186485
      2         16           0        0.187478    1.948924   -0.473591
      3          7           0        0.170633    0.472271    0.342283
      4          6           0        1.324697   -0.451374    0.273808
      5          6           0        2.547928    0.016345    1.096673
      6         16           0        3.747850   -0.649836   -0.169660
      7          8           0        4.085197   -2.103646    0.157910
      8          6           0        2.108720   -0.570965   -1.063486
      9          6           0        0.872074   -1.835109    0.781646
     10          6           0       -0.131950   -2.618157   -0.086200
     11          6           0       -1.571310   -2.140404   -0.061317
     12          6           0       -2.221728   -1.763618   -1.244563
     13          6           0       -3.557498   -1.355004   -1.232938
     14          6           0       -4.266627   -1.316486   -0.031776
     15          6           0       -3.630607   -1.689143    1.155970
     16          6           0       -2.297954   -2.097827    1.138309
     17          7           0       -0.986954    2.855769    0.270081
     18          6           0       -2.385656    2.560810   -0.072621
     19          6           0       -0.751895    3.159251    1.686002
     20          8           0       -0.219918    1.792415   -1.877402
     21          1           0       -0.711759    0.002344    0.128785
     22          1           0        2.679644   -0.421770    2.086822
     23          1           0        2.655087    1.099908    1.123087
     24          1           0        1.917660   -1.442998   -1.689571
     25          1           0        2.099837    0.336137   -1.668414
     26          1           0        0.480281   -1.713993    1.797688
     27          1           0        1.785694   -2.430321    0.863817
     28          1           0       -0.103457   -3.655915    0.265869
     29          1           0        0.217319   -2.642625   -1.123633
     30          1           0       -1.673350   -1.793806   -2.181664
     31          1           0       -4.041706   -1.069509   -2.161786
     32          1           0       -5.305421   -1.001360   -0.019633
     33          1           0       -4.174629   -1.667109    2.094953
     34          1           0       -1.815470   -2.391791    2.065833
     35          1           0       -2.464122    2.378135   -1.142335
     36          1           0       -2.976096    3.442639    0.183160
     37          1           0       -2.776755    1.699194    0.481864
     38          1           0        0.293535    3.427455    1.828127
     39          1           0       -1.009062    2.316073    2.336678
     40          1           0       -1.373952    4.017237    1.946592
 ---------------------------------------------------------------------

 SCF Done:  E(RHF) =  -1632.40529198     A.U. after   17 cycles
