 Gaussian 16, Revision B.01,

 ----------------------------------------------------------------------
 #p b3lyp/6-31G(d) opt freq NoSymm scf=(MaxCycle=2000,NoVarAcc,NoIncFoc
 k) scrf=(iefpcm,read,solvent=water) MaxDisk=20GB
 ----------------------------------------------------------------------

 -------------------
 SM37_m0.n.5.pdb.xyz
 -------------------
 Symbolic Z-matrix:
 Charge =  0 Multiplicity = 1

 SCF Done:  E(RB3LYP) =  -1638.86002844     A.U. after   13 cycles
 SCF Done:  E(RB3LYP) =  -1638.86036833     A.U. after   10 cycles
 SCF Done:  E(RB3LYP) =  -1638.86023411     A.U. after   10 cycles
 SCF Done:  E(RB3LYP) =  -1638.86007014     A.U. after   10 cycles
 SCF Done:  E(RB3LYP) =  -1638.85971186     A.U. after   10 cycles
 SCF Done:  E(RB3LYP) =  -1638.86034255     A.U. after   11 cycles
 SCF Done:  E(RB3LYP) =  -1638.86036454     A.U. after    9 cycles
 SCF Done:  E(RB3LYP) =  -1638.86018770     A.U. after   10 cycles
 SCF Done:  E(RB3LYP) =  -1638.86037123     A.U. after   10 cycles
 SCF Done:  E(RB3LYP) =  -1638.86013006     A.U. after   11 cycles
 SCF Done:  E(RB3LYP) =  -1638.86036609     A.U. after   11 cycles
 SCF Done:  E(RB3LYP) =  -1638.86036711     A.U. after    8 cycles
 SCF Done:  E(RB3LYP) =  -1638.86003296     A.U. after   11 cycles
 SCF Done:  E(RB3LYP) =  -1638.85999235     A.U. after    8 cycles
 SCF Done:  E(RB3LYP) =  -1638.86001781     A.U. after    8 cycles
 SCF Done:  E(RB3LYP) =  -1638.86001367     A.U. after    7 cycles
 Optimization completed.
    -- Stationary point found.
 Normal termination of Gaussian 16 at Tue Sep 15 08:42:58 2020.

 --------------------------------------------------------------------
 #P Geom=AllCheck Guess=TCheck SCRF=Check GenChk RB3LYP/6-31G(d) Freq
 --------------------------------------------------------------------

 Structure from the checkpoint file:  "SM37_m0.n.5.pdb.xyz.mst.n.w.chk"
 -------------------
 SM37_m0.n.5.pdb.xyz
 -------------------
 Charge =  0 Multiplicity = 1

 SCF Done:  E(RB3LYP) =  -1638.86001367     A.U. after    1 cycles

  Exact polarizability: 285.592   9.451 242.705  -3.349  37.248 217.177
 Approx polarizability: 309.740  14.168 277.885   1.282  49.717 249.727

                      1                      2                      3
                      A                      A                      A
 Frequencies --     12.0777                19.6697                25.6744
 Red. masses --      3.7864                 5.1174                 5.2263
 Frc consts  --      0.0003                 0.0012                 0.0020
 IR Inten    --      0.1131                 2.4752                 0.6676

                      4                      5                      6
                      A                      A                      A
 Frequencies --     50.6552                55.7592                68.4515
 Red. masses --      4.1526                 5.0032                 3.6760
 Frc consts  --      0.0063                 0.0092                 0.0101
 IR Inten    --      1.6054                 3.5240                11.2920

                      7                      8                      9
                      A                      A                      A
 Frequencies --     89.2146               100.5194               157.8136
 Red. masses --      4.1798                 4.5603                 4.4328
 Frc consts  --      0.0196                 0.0271                 0.0650
 IR Inten    --      4.3434                 0.5506                11.1497

                     10                     11                     12
                      A                      A                      A
 Frequencies --    164.9777               169.5900               199.8058
 Red. masses --      5.2733                 3.6594                 1.6526
 Frc consts  --      0.0846                 0.0620                 0.0389
 IR Inten    --      6.0888                15.2603                 2.1550

                     13                     14                     15
                      A                      A                      A
 Frequencies --    210.1319               232.0895               239.6736
 Red. masses --      1.3458                 1.9173                 4.3032
 Frc consts  --      0.0350                 0.0608                 0.1456
 IR Inten    --      1.3993                 4.3303                10.2840

                     16                     17                     18
                      A                      A                      A
 Frequencies --    259.5287               282.1941               296.5372
 Red. masses --      4.1838                 3.2503                 2.5337
 Frc consts  --      0.1660                 0.1525                 0.1313
 IR Inten    --      1.7408                 0.6221                 1.1208

                     19                     20                     21
                      A                      A                      A
 Frequencies --    326.8329               341.2600               351.7710
 Red. masses --      2.7783                 2.9441                 3.2061
 Frc consts  --      0.1749                 0.2020                 0.2337
 IR Inten    --     14.5049                 0.3960                10.8117

                     22                     23                     24
                      A                      A                      A
 Frequencies --    361.0883               390.7143               418.6381
 Red. masses --      2.7697                 2.9965                 2.9861
 Frc consts  --      0.2128                 0.2695                 0.3083
 IR Inten    --      8.2800                 1.5259                 0.0416

                     25                     26                     27
                      A                      A                      A
 Frequencies --    428.3718               455.4077               465.2289
 Red. masses --      4.1883                 3.1154                 4.7121
 Frc consts  --      0.4528                 0.3807                 0.6009
 IR Inten    --      4.2638                24.4563                22.6441

                     28                     29                     30
                      A                      A                      A
 Frequencies --    495.6770               518.2186               534.2116
 Red. masses --      2.6265                 2.9843                 3.3666
 Frc consts  --      0.3802                 0.4722                 0.5661
 IR Inten    --     76.8490                58.2856               108.6827

                     31                     32                     33
                      A                      A                      A
 Frequencies --    561.0965               596.9763               611.5161
 Red. masses --      6.8971                 4.0093                 4.4388
 Frc consts  --      1.2794                 0.8418                 0.9780
 IR Inten    --     61.0438                30.0838                56.3451

                     34                     35                     36
                      A                      A                      A
 Frequencies --    634.3939               640.9494               668.9832
 Red. masses --      6.3242                 4.4375                 5.7326
 Frc consts  --      1.4996                 1.0741                 1.5116
 IR Inten    --      0.1990                19.4131               131.8731

                     37                     38                     39
                      A                      A                      A
 Frequencies --    716.5998               716.9118               765.3953
 Red. masses --      2.9796                 2.0351                 1.7750
 Frc consts  --      0.9015                 0.6163                 0.6127
 IR Inten    --     24.0905                19.1649                61.7418

                     40                     41                     42
                      A                      A                      A
 Frequencies --    786.5465               803.4404               827.9501
 Red. masses --      1.3947                 3.2109                 1.6551
 Frc consts  --      0.5084                 1.2212                 0.6685
 IR Inten    --     19.9777                 1.8584                16.4628

                     43                     44                     45
                      A                      A                      A
 Frequencies --    836.8102               867.5392               895.1735
 Red. masses --      3.7178                 1.2481                 2.6506
 Frc consts  --      1.5339                 0.5534                 1.2514
 IR Inten    --     24.5063                 0.0644                78.3564

                     46                     47                     48
                      A                      A                      A
 Frequencies --    913.6865               932.4188               949.3237
 Red. masses --      2.9529                 1.4926                 3.1936
 Frc consts  --      1.4524                 0.7645                 1.6957
 IR Inten    --    187.1116                 7.0766               219.8008

                     49                     50                     51
                      A                      A                      A
 Frequencies --    976.6223               978.6736               997.0335
 Red. masses --      2.0365                 1.4067                 2.0504
 Frc consts  --      1.1444                 0.7939                 1.2009
 IR Inten    --    108.6916                10.4636                17.1733

                     52                     53                     54
                      A                      A                      A
 Frequencies --   1004.1257              1016.2129              1038.7672
 Red. masses --      1.2562                 6.1983                 3.9830
 Frc consts  --      0.7463                 3.7713                 2.5322
 IR Inten    --      0.3250                 0.1489                 9.5448

                     55                     56                     57
                      A                      A                      A
 Frequencies --   1055.2928              1057.0171              1064.4091
 Red. masses --      2.2274                 1.2605                 2.8430
 Frc consts  --      1.4615                 0.8297                 1.8977
 IR Inten    --     21.6154                 0.9938               243.3206

                     58                     59                     60
                      A                      A                      A
 Frequencies --   1072.2871              1088.5108              1097.4468
 Red. masses --      1.5834                 2.1256                 3.7958
 Frc consts  --      1.0727                 1.4839                 2.6935
 IR Inten    --     20.5359                81.8790               188.5777

                     61                     62                     63
                      A                      A                      A
 Frequencies --   1107.1649              1132.9034              1136.8156
 Red. masses --      3.6067                 1.2343                 1.5994
 Frc consts  --      2.6049                 0.9334                 1.2178
 IR Inten    --     39.5792                 2.1600                 6.5176

                     64                     65                     66
                      A                      A                      A
 Frequencies --   1180.7681              1183.0991              1192.5092
 Red. masses --      1.3844                 1.0913                 1.3002
 Frc consts  --      1.1372                 0.9000                 1.0894
 IR Inten    --      4.4260                 0.0769                 2.2634

                     67                     68                     69
                      A                      A                      A
 Frequencies --   1202.5649              1208.4395              1223.1438
 Red. masses --      1.1341                 1.3246                 3.6502
 Frc consts  --      0.9663                 1.1397                 3.2176
 IR Inten    --      0.5674                18.5895                29.0744

                     70                     71                     72
                      A                      A                      A
 Frequencies --   1235.6113              1250.1462              1273.8177
 Red. masses --      2.6441                 3.0827                 1.7223
 Frc consts  --      2.3784                 2.8386                 1.6466
 IR Inten    --      3.2019               112.4818                64.4110

                     73                     74                     75
                      A                      A                      A
 Frequencies --   1278.3419              1287.3783              1319.6240
 Red. masses --      2.3619                 2.9788                 1.4539
 Frc consts  --      2.2741                 2.9087                 1.4917
 IR Inten    --    151.2503               172.1645                 2.6842

                     76                     77                     78
                      A                      A                      A
 Frequencies --   1338.6679              1360.0588              1370.0538
 Red. masses --      1.4401                 2.9424                 1.3340
 Frc consts  --      1.5205                 3.2068                 1.4753
 IR Inten    --     51.9075                 0.4888                 7.1272

                     79                     80                     81
                      A                      A                      A
 Frequencies --   1400.7183              1454.1534              1455.1139
 Red. masses --      1.5219                 1.1716                 1.1570
 Frc consts  --      1.7593                 1.4596                 1.4434
 IR Inten    --      0.5771                41.6213                29.5594

                     82                     83                     84
                      A                      A                      A
 Frequencies --   1462.6037              1472.5807              1483.8592
 Red. masses --      1.1151                 1.1509                 1.1198
 Frc consts  --      1.4054                 1.4704                 1.4527
 IR Inten    --     33.8614                11.7632                 6.5184

                     85                     86                     87
                      A                      A                      A
 Frequencies --   1497.6918              1504.8680              1507.9559
 Red. masses --      2.1558                 1.0467                 1.0925
 Frc consts  --      2.8491                 1.3966                 1.4637
 IR Inten    --      5.1693                13.9387                 5.1872

                     88                     89                     90
                      A                      A                      A
 Frequencies --   1515.6632              1517.7830              1527.4782
 Red. masses --      1.0454                 1.0623                 1.0996
 Frc consts  --      1.4150                 1.4419                 1.5116
 IR Inten    --      6.9746                18.7976                 5.1871

                     91                     92                     93
                      A                      A                      A
 Frequencies --   1531.0721              1542.7585              1641.2242
 Red. masses --      1.0485                 2.2552                 5.5420
 Frc consts  --      1.4482                 3.1625                 8.7954
 IR Inten    --     18.3259                19.7677                 1.3126

                     94                     95                     96
                      A                      A                      A
 Frequencies --   1661.0688              3053.6098              3056.5411
 Red. masses --      5.7134                 1.0470                 1.0622
 Frc consts  --      9.2880                 5.7523                 5.8466
 IR Inten    --     10.7553                67.9473                10.9753

                     97                     98                     99
                      A                      A                      A
 Frequencies --   3059.8995              3070.7774              3104.8150
 Red. masses --      1.0440                 1.0629                 1.1004
 Frc consts  --      5.7593                 5.9052                 6.2501
 IR Inten    --     83.9981                64.4228                 2.6848

                    100                    101                    102
                      A                      A                      A
 Frequencies --   3124.5153              3126.0548              3128.7294
 Red. masses --      1.0839                 1.0697                 1.0616
 Frc consts  --      6.2344                 6.1592                 6.1227
 IR Inten    --     16.7108                32.5621                17.7087

                    103                    104                    105
                      A                      A                      A
 Frequencies --   3143.8280              3145.9146              3189.0708
 Red. masses --      1.0921                 1.0935                 1.0866
 Frc consts  --      6.3596                 6.3760                 6.5109
 IR Inten    --     50.3730                 2.9334                15.4440

                    106                    107                    108
                      A                      A                      A
 Frequencies --   3190.5214              3191.7771              3195.5294
 Red. masses --      1.0877                 1.1031                 1.1099
 Frc consts  --      6.5235                 6.6211                 6.6778
 IR Inten    --     15.2500                10.3217                 6.2197

                    109                    110                    111
                      A                      A                      A
 Frequencies --   3201.5542              3203.9565              3204.4410
 Red. masses --      1.0896                 1.1019                 1.1104
 Frc consts  --      6.5804                 6.6646                 6.7180
 IR Inten    --     14.9688                 7.2135                 2.1753

                    112                    113                    114
                      A                      A                      A
 Frequencies --   3210.0488              3221.8014              3522.8834
 Red. masses --      1.0938                 1.0977                 1.0761
 Frc consts  --      6.6404                 6.7133                 7.8686
 IR Inten    --     73.6334                34.0462               133.1665

 - Thermochemistry -
 -------------------
 Temperature   298.150 Kelvin.  Pressure   1.00000 Atm.
 Atom     1 has atomic number  8 and mass  15.99491

 Molecular mass:   316.09154 amu.
 Principal axes and moments of inertia in atomic units:
                           1         2         3
     Eigenvalues --  4171.65308********************
           X            0.99993   0.00539  -0.01010
           Y           -0.00621   0.99654  -0.08293
           Z            0.00961   0.08299   0.99650
 This molecule is an asymmetric top.
 Rotational symmetry number  1.
 Warning -- assumption of classical behavior for rotation
           may cause significant error
 Rotational temperatures (Kelvin)      0.02076     0.00767     0.00634
 Rotational constants (GHZ):           0.43262     0.15973     0.13211
 Zero-point vibrational energy     859504.1 (Joules/Mol)
                                  205.42641 (Kcal/Mol)
 Warning -- explicit consideration of  33 degrees of freedom as
           vibrations may cause significant error
 Vibrational temperatures:     17.38    28.30    36.94    72.88    80.23
          (Kelvin)             98.49   128.36   144.63   227.06   237.37
                              244.00   287.48   302.33   333.92   344.84
                              373.40   406.01   426.65   470.24   491.00
                              506.12   519.53   562.15   602.33   616.33
                              655.23   669.36   713.17   745.60   768.61
                              807.29   858.92   879.84   912.75   922.18
                              962.52  1031.03  1031.48  1101.23  1131.66
                             1155.97  1191.24  1203.98  1248.20  1287.95
                             1314.59  1341.54  1365.86  1405.14  1408.09
                             1434.51  1444.71  1462.10  1494.55  1518.33
                             1520.81  1531.45  1542.78  1566.12  1578.98
                             1592.96  1630.00  1635.62  1698.86  1702.22
                             1715.75  1730.22  1738.67  1759.83  1777.77
                             1798.68  1832.74  1839.25  1852.25  1898.64
                             1926.04  1956.82  1971.20  2015.32  2092.20
                             2093.58  2104.36  2118.72  2134.94  2154.84
                             2165.17  2169.61  2180.70  2183.75  2197.70
                             2202.87  2219.69  2361.36  2389.91  4393.46
                             4397.68  4402.51  4418.16  4467.14  4495.48
                             4497.70  4501.54  4523.27  4526.27  4588.36
                             4590.45  4592.26  4597.65  4606.32  4609.78
                             4610.48  4618.54  4635.45  5068.64

 Zero-point correction=                           0.327368 (Hartree/Particle)
 Thermal correction to Energy=                    0.348173
 Thermal correction to Enthalpy=                  0.349117
 Thermal correction to Gibbs Free Energy=         0.274694
 Sum of electronic and zero-point Energies=          -1638.532646
 Sum of electronic and thermal Energies=             -1638.511841
 Sum of electronic and thermal Enthalpies=           -1638.510897
 Sum of electronic and thermal Free Energies=        -1638.585320

                     E (Thermal)             CV                S
                      KCal/Mol        Cal/Mol-Kelvin    Cal/Mol-Kelvin
 Total                  218.482             78.583            156.636
 Electronic               0.000              0.000              0.000
 Translational            0.889              2.981             43.148
 Rotational               0.889              2.981             34.820
 Vibrational            216.704             72.621             78.668
 Vibration     1          0.593              1.987              7.636
 Vibration     2          0.593              1.986              6.667
 Vibration     3          0.593              1.985              6.138
 Vibration     4          0.595              1.977              4.792
 Vibration     5          0.596              1.975              4.602
 Vibration     6          0.598              1.969              4.197
 Vibration     7          0.602              1.957              3.677
 Vibration     8          0.604              1.949              3.444
 Vibration     9          0.621              1.894              2.576
 Vibration    10          0.623              1.885              2.492
 Vibration    11          0.625              1.880              2.440
 Vibration    12          0.638              1.840              2.135
 Vibration    13          0.642              1.825              2.043
 Vibration    14          0.653              1.792              1.863
 Vibration    15          0.657              1.780              1.805
 Vibration    16          0.668              1.747              1.665
 Vibration    17          0.681              1.707              1.520
 Vibration    18          0.690              1.680              1.436
 Vibration    19          0.710              1.622              1.276
 Vibration    20          0.721              1.593              1.206
 Vibration    21          0.728              1.572              1.158
 Vibration    22          0.735              1.552              1.117
 Vibration    23          0.758              1.490              0.997
 Vibration    24          0.781              1.430              0.897
 Vibration    25          0.790              1.408              0.864
 Vibration    26          0.814              1.349              0.780
 Vibration    27          0.823              1.327              0.751
 Vibration    28          0.851              1.260              0.669
 Vibration    29          0.873              1.210              0.614
 Vibration    30          0.889              1.174              0.578
 Vibration    31          0.917              1.115              0.522
 Vibration    32          0.955              1.038              0.455
 Vibration    33          0.971              1.007              0.430

                           ! Non-Optimized Parameters !
 Normal termination of Gaussian 16 at Tue Sep 15 09:02:55 2020.

 ----------------------------------------------------------------------
 #p b3lyp/6-31G(d) scrf=(iefpcm,read,solvent=water) geom=allcheck guess
 =read
 ----------------------------------------------------------------------

 Structure from the checkpoint file:  "SM37_m0.n.5.pdb.xyz.mst.n.w.chk"
 -------------------
 SM37_m0.n.5.pdb.xyz
 -------------------
 Charge =  0 Multiplicity = 1

 SCF Done:  E(RB3LYP) =  -1638.86005640     A.U. after    6 cycles
 Normal termination of Gaussian 16 at Tue Sep 15 09:03:55 2020.

 -----------------------------
 #p B3LYP/6-31G* geom=allcheck
 -----------------------------

 Structure from the checkpoint file:  "SM37_m0.n.5.pdb.xyz.mst.n.w.chk"
 -------------------
 SM37_m0.n.5.pdb.xyz
 -------------------
 Charge =  0 Multiplicity = 1

 SCF Done:  E(RB3LYP) =  -1638.83548160     A.U. after   15 cycles
 Normal termination of Gaussian 16 at Tue Sep 15 09:05:12 2020.
 Gaussian 16:  ES64L-G16RevB.01 20-Dec-2017

 ----------------------------------------------------------------------
 #p mp2/aug-cc-pVDZ scf=(MaxCycle=2000,NoVarAcc,NoIncFock) maxdisk=180G
 B geom=allcheck
 ----------------------------------------------------------------------

 Structure from the checkpoint file:  "SM37_m0.n.5.pdb.xyz.mst.n.w.chk"
 -------------------
 SM37_m0.n.5.pdb.xyz
 -------------------
 Charge =  0 Multiplicity = 1

                         Standard orientation:
 ---------------------------------------------------------------------
 Center     Atomic      Atomic             Coordinates (Angstroms)
 Number     Number       Type             X           Y           Z
 ---------------------------------------------------------------------
      1          8           0       -3.542090    0.268944   -0.979720
      2         16           0       -2.743129   -0.917238   -0.633247
      3          7           0       -1.100012   -0.655054   -0.723011
      4          6           0       -0.459536    0.647275   -0.456900
      5          6           0       -0.854756    1.302211    0.889213
      6         16           0       -0.855578    3.013239    0.138217
      7          8           0        0.539726    3.623354    0.265653
      8          6           0       -0.899190    1.856704   -1.327440
      9          6           0        1.064125    0.446262   -0.577202
     10          6           0        1.662584   -0.593257    0.386425
     11          6           0        3.165407   -0.694540    0.247381
     12          6           0        4.011281    0.194983    0.924714
     13          6           0        5.396928    0.122185    0.774692
     14          6           0        5.962033   -0.846035   -0.058740
     15          6           0        5.131324   -1.739250   -0.738014
     16          6           0        3.744950   -1.662606   -0.584494
     17          7           0       -2.934301   -1.124772    1.018968
     18          6           0       -4.308712   -0.933612    1.507396
     19          6           0       -2.279248   -2.320982    1.563739
     20          8           0       -2.969556   -2.151339   -1.402614
     21          1           0       -0.742215   -1.122438   -1.555825
     22          1           0       -0.154731    1.203486    1.719969
     23          1           0       -1.864491    1.051070    1.215714
     24          1           0       -0.227624    2.164130   -2.130323
     25          1           0       -1.928380    1.787864   -1.677856
     26          1           0        1.522066    1.425226   -0.403249
     27          1           0        1.296246    0.167449   -1.612592
     28          1           0        1.207694   -1.568589    0.193367
     29          1           0        1.407363   -0.320619    1.416598
     30          1           0        3.579254    0.947956    1.578074
     31          1           0        6.034563    0.817608    1.311075
     32          1           0        7.039518   -0.905826   -0.174421
     33          1           0        5.561288   -2.498211   -1.384053
     34          1           0        3.103055   -2.363346   -1.111325
     35          1           0       -4.708291   -0.000266    1.116930
     36          1           0       -4.254277   -0.872485    2.595454
     37          1           0       -4.970539   -1.763830    1.232854
     38          1           0       -1.254989   -2.371732    1.197241
     39          1           0       -2.811981   -3.241912    1.300141
     40          1           0       -2.261804   -2.216455    2.649815
 ---------------------------------------------------------------------

 SCF Done:  E(RHF) =  -1632.40630414     A.U. after   16 cycles
 E2 =    -0.3116642058D+01 EUMP2 =    -0.16355229461941D+04

 The electronic state is 1-A.
 Alpha  occ. eigenvalues --  -92.25629 -92.07894 -20.57464 -20.57194 -20.52114
 Alpha  occ. eigenvalues --  -15.62947 -15.62760 -11.32820 -11.29008 -11.28848
 Alpha  occ. eigenvalues --  -11.28268 -11.27647 -11.25443 -11.25368 -11.25113
 Alpha  occ. eigenvalues --  -11.24727 -11.24628 -11.24467 -11.24333 -11.24266
 Alpha  occ. eigenvalues --   -9.22127  -9.06708  -6.90680  -6.90632  -6.90590
 Alpha  occ. eigenvalues --   -6.74916  -6.74795  -6.74666  -1.48203  -1.35175
 Alpha  occ. eigenvalues --   -1.32855  -1.27737  -1.25836  -1.16259  -1.13682
 Alpha  occ. eigenvalues --   -1.07691  -1.01946  -1.01076  -0.99475  -0.96979
 Alpha  occ. eigenvalues --   -0.95490  -0.92044  -0.85685  -0.83366  -0.82854
 Alpha  occ. eigenvalues --   -0.80094  -0.77583  -0.73739  -0.72498  -0.70454
 Alpha  occ. eigenvalues --   -0.70102  -0.67385  -0.66619  -0.65708  -0.64344
 Alpha  occ. eigenvalues --   -0.63884  -0.62686  -0.61504  -0.60705  -0.59611
 Alpha  occ. eigenvalues --   -0.59260  -0.58971  -0.58218  -0.58069  -0.56470
 Alpha  occ. eigenvalues --   -0.55501  -0.54732  -0.54471  -0.53362  -0.52264
 Alpha  occ. eigenvalues --   -0.51586  -0.51087  -0.50302  -0.49590  -0.49095
 Alpha  occ. eigenvalues --   -0.48810  -0.48378  -0.47461  -0.44348  -0.42097
 Alpha  occ. eigenvalues --   -0.40115  -0.36663  -0.34003  -0.33119
 Alpha virt. eigenvalues --    0.02555   0.03048   0.03861   0.04053   0.04362
 Alpha virt. eigenvalues --    0.04653   0.05233   0.05696   0.05936   0.06497
 Alpha virt. eigenvalues --    0.06528   0.07072   0.07464   0.08199   0.08488

 Mulliken charges:
               1
     1  O   -1.209376
     2  S    3.354150
     3  N   -1.269893
     4  C    0.916737
     5  C    0.308442
     6  S    1.484800
     7  O   -1.253140
     8  C    0.348594
     9  C   -0.184560
    10  C    0.824492
    11  C    1.285566
    12  C    0.516527
    13  C   -0.000240
    14  C    0.648457
    15  C    0.035399
    16  C    0.480262
    17  N   -1.079361
    18  C    0.859241
    19  C    0.852293
    20  O   -1.180546
    21  H   -0.052872
    22  H   -0.293964
    23  H   -0.246586
    24  H   -0.361002
    25  H   -0.208358
    26  H   -0.121312
    27  H   -0.160107
    28  H   -0.370867
    29  H   -0.309924
    30  H   -0.678644
    31  H   -0.466142
    32  H   -0.436705
    33  H   -0.467432
    34  H   -0.654341
    35  H   -0.166742
    36  H   -0.153029
    37  H   -0.081406
    38  H   -0.337860
    39  H   -0.021897
    40  H   -0.148656
 Sum of Mulliken charges =  -0.00000

 Dipole moment (field-independent basis, Debye):
    X=             -0.1441    Y=             -3.6792    Z=              2.5219  Tot=              4.4628
 Quadrupole moment (field-independent basis, Debye-Ang):
   XX=           -136.9114   YY=           -156.2284   ZZ=           -130.5055
   XY=             -6.5119   XZ=            -16.5897   YZ=             -5.6288

 Normal termination of Gaussian 16 at Tue Sep 15 10:23:23 2020.
