 Gaussian 16, Revision B.01,

 ----------------------------------------------------------------------
 #p b3lyp/6-31G(d) opt freq NoSymm scf=(MaxCycle=2000,NoVarAcc,NoIncFoc
 k) scrf=(iefpcm,read,solvent=water)
 ----------------------------------------------------------------------

 -------------------
 SM37_m0.n.7.pdb.xyz
 -------------------
 Symbolic Z-matrix:
 Charge =  0 Multiplicity = 1

 SCF Done:  E(RB3LYP) =  -1638.85862617     A.U. after   13 cycles
 SCF Done:  E(RB3LYP) =  -1638.85784797     A.U. after   11 cycles
 SCF Done:  E(RB3LYP) =  -1638.85769906     A.U. after   10 cycles
 SCF Done:  E(RB3LYP) =  -1638.85701500     A.U. after   11 cycles
 SCF Done:  E(RB3LYP) =  -1638.85874298     A.U. after   11 cycles
 SCF Done:  E(RB3LYP) =  -1638.85871747     A.U. after   10 cycles
 SCF Done:  E(RB3LYP) =  -1638.85859608     A.U. after   10 cycles
 SCF Done:  E(RB3LYP) =  -1638.85873466     A.U. after   10 cycles
 SCF Done:  E(RB3LYP) =  -1638.85874299     A.U. after    9 cycles
 SCF Done:  E(RB3LYP) =  -1638.85832374     A.U. after   10 cycles
 SCF Done:  E(RB3LYP) =  -1638.85874506     A.U. after   10 cycles
 SCF Done:  E(RB3LYP) =  -1638.85848937     A.U. after   10 cycles
 SCF Done:  E(RB3LYP) =  -1638.85874526     A.U. after   10 cycles
 SCF Done:  E(RB3LYP) =  -1638.85848876     A.U. after   10 cycles
 SCF Done:  E(RB3LYP) =  -1638.85874522     A.U. after   10 cycles
 SCF Done:  E(RB3LYP) =  -1638.85848922     A.U. after   10 cycles
 Optimization completed on the basis of negligible forces.
    -- Stationary point found.
 Normal termination of Gaussian 16 at Mon Sep 21 07:28:39 2020.

 --------------------------------------------------------------------
 #P Geom=AllCheck Guess=TCheck SCRF=Check GenChk RB3LYP/6-31G(d) Freq
 --------------------------------------------------------------------

 Structure from the checkpoint file:  "SM37_m0.n.7.pdb.xyz.mst.n.w.chk"
 -------------------
 SM37_m0.n.7.pdb.xyz
 -------------------
 Charge =  0 Multiplicity = 1

 SCF Done:  E(RB3LYP) =  -1638.85848922     A.U. after    1 cycles

  Exact polarizability: 288.403 -12.706 265.601 -13.228 -22.770 192.696
 Approx polarizability: 306.573 -20.112 308.275 -19.975 -26.720 223.034

                      1                      2                      3
                      A                      A                      A
 Frequencies --     11.1844                18.5469                25.9739
 Red. masses --      3.8811                 4.4107                 5.9376
 Frc consts  --      0.0003                 0.0009                 0.0024
 IR Inten    --      0.1246                 2.3251                 2.0557

                      4                      5                      6
                      A                      A                      A
 Frequencies --     55.1306                63.4937                88.6609
 Red. masses --      3.5009                 4.3874                 4.3543
 Frc consts  --      0.0063                 0.0104                 0.0202
 IR Inten    --      0.7160                 2.4283                 5.6540

                      7                      8                      9
                      A                      A                      A
 Frequencies --    100.2120               105.8002               147.1731
 Red. masses --      4.4779                 4.4536                 6.2445
 Frc consts  --      0.0265                 0.0294                 0.0797
 IR Inten    --      0.0954                11.3578                 8.6849

                     10                     11                     12
                      A                      A                      A
 Frequencies --    159.9309               192.8697               202.0276
 Red. masses --      5.5238                 1.9885                 2.4172
 Frc consts  --      0.0832                 0.0436                 0.0581
 IR Inten    --      7.4657                 2.2093                 5.9606

                     13                     14                     15
                      A                      A                      A
 Frequencies --    207.2428               233.0010               248.2620
 Red. masses --      1.1770                 2.7218                 3.2300
 Frc consts  --      0.0298                 0.0871                 0.1173
 IR Inten    --      2.4405                 9.4432                 2.8401

                     16                     17                     18
                      A                      A                      A
 Frequencies --    254.3540               282.2297               306.7798
 Red. masses --      5.0992                 3.8823                 2.3316
 Frc consts  --      0.1944                 0.1822                 0.1293
 IR Inten    --      0.8783                11.5834                 1.6924

                     19                     20                     21
                      A                      A                      A
 Frequencies --    330.2847               345.9291               355.2335
 Red. masses --      3.0946                 2.9404                 3.0921
 Frc consts  --      0.1989                 0.2073                 0.2299
 IR Inten    --      6.6341                 7.1842                21.7363

                     22                     23                     24
                      A                      A                      A
 Frequencies --    364.4615               389.5560               417.5814
 Red. masses --      2.9745                 3.1141                 2.9811
 Frc consts  --      0.2328                 0.2784                 0.3063
 IR Inten    --     20.1760                 7.2642                 0.0593

                     25                     26                     27
                      A                      A                      A
 Frequencies --    428.0672               457.3333               464.7933
 Red. masses --      3.8481                 4.5134                 4.4144
 Frc consts  --      0.4154                 0.5562                 0.5619
 IR Inten    --     18.3695                27.1557                 6.6760

                     28                     29                     30
                      A                      A                      A
 Frequencies --    499.1135               507.2544               523.1541
 Red. masses --      1.2940                 5.3824                 3.3010
 Frc consts  --      0.1899                 0.8160                 0.5323
 IR Inten    --    165.8266                64.1292                 2.2147

                     31                     32                     33
                      A                      A                      A
 Frequencies --    562.6885               592.4012               612.3357
 Red. masses --      6.9665                 5.4877                 4.4271
 Frc consts  --      1.2996                 1.1347                 0.9780
 IR Inten    --     78.6108                25.4796                61.1977

                     34                     35                     36
                      A                      A                      A
 Frequencies --    634.4919               642.8225               670.7927
 Red. masses --      6.3401                 4.4310                 6.6872
 Frc consts  --      1.5038                 1.0788                 1.7729
 IR Inten    --      0.3524                 7.3608               255.4948

                     37                     38                     39
                      A                      A                      A
 Frequencies --    713.2678               716.9469               766.7799
 Red. masses --      3.6047                 1.9456                 1.7946
 Frc consts  --      1.0805                 0.5892                 0.6217
 IR Inten    --      6.0024                31.7171                40.9491

                     40                     41                     42
                      A                      A                      A
 Frequencies --    789.0582               806.7636               834.8650
 Red. masses --      1.6033                 2.3925                 3.8549
 Frc consts  --      0.5882                 0.9175                 1.5831
 IR Inten    --     16.1073                 0.3113                26.0241

                     43                     44                     45
                      A                      A                      A
 Frequencies --    841.4741               867.3338               896.5500
 Red. masses --      1.6263                 1.2484                 2.8152
 Frc consts  --      0.6785                 0.5533                 1.3332
 IR Inten    --      6.9833                 0.0404                64.7989

                     46                     47                     48
                      A                      A                      A
 Frequencies --    922.0834               934.9302               936.7804
 Red. masses --      2.6269                 1.5123                 3.2521
 Frc consts  --      1.3159                 0.7789                 1.6815
 IR Inten    --    117.8703                11.3643               186.1749

                     49                     50                     51
                      A                      A                      A
 Frequencies --    977.9576               979.9221              1002.1675
 Red. masses --      1.3696                 2.2044                 2.0408
 Frc consts  --      0.7717                 1.2472                 1.2076
 IR Inten    --      5.6410               144.3850                20.4175

                     52                     53                     54
                      A                      A                      A
 Frequencies --   1005.2037              1016.5363              1039.8210
 Red. masses --      1.2809                 6.1257                 3.6790
 Frc consts  --      0.7625                 3.7295                 2.3437
 IR Inten    --      0.5436                 0.2038                 5.2073

                     55                     56                     57
                      A                      A                      A
 Frequencies --   1054.9645              1055.6807              1067.4788
 Red. masses --      1.3417                 2.1546                 2.5922
 Frc consts  --      0.8798                 1.4148                 1.7403
 IR Inten    --     48.5612                13.2691               187.4705

                     58                     59                     60
                      A                      A                      A
 Frequencies --   1069.5430              1093.7759              1102.3128
 Red. masses --      1.5897                 1.9433                 5.1548
 Frc consts  --      1.0714                 1.3698                 3.6904
 IR Inten    --     20.1353                57.5779               245.5239

                     61                     62                     63
                      A                      A                      A
 Frequencies --   1113.3503              1129.8393              1137.0931
 Red. masses --      3.6405                 1.2439                 1.6260
 Frc consts  --      2.6588                 0.9356                 1.2387
 IR Inten    --     50.7650                 3.5546                 4.6422

                     64                     65                     66
                      A                      A                      A
 Frequencies --   1179.3691              1186.0746              1196.6212
 Red. masses --      1.3786                 1.0980                 1.3090
 Frc consts  --      1.1297                 0.9101                 1.1044
 IR Inten    --      6.1695                 0.0633                 9.3516

                     67                     68                     69
                      A                      A                      A
 Frequencies --   1204.1152              1216.3296              1219.5875
 Red. masses --      1.1346                 1.3402                 3.6025
 Frc consts  --      0.9693                 1.1682                 3.1570
 IR Inten    --      0.3153                14.9870                52.8386

                     70                     71                     72
                      A                      A                      A
 Frequencies --   1237.7880              1256.3089              1275.1462
 Red. masses --      2.5957                 2.6013                 1.8130
 Frc consts  --      2.3432                 2.4190                 1.7369
 IR Inten    --      2.2298                73.1282                17.0991

                     73                     74                     75
                      A                      A                      A
 Frequencies --   1279.1175              1298.8948              1326.4197
 Red. masses --      1.7348                 5.0422                 1.4441
 Frc consts  --      1.6723                 5.0121                 1.4969
 IR Inten    --     99.5403               298.8145                 0.9405

                     76                     77                     78
                      A                      A                      A
 Frequencies --   1348.4052              1363.2716              1372.5412
 Red. masses --      1.4641                 2.8057                 1.3221
 Frc consts  --      1.5684                 3.0723                 1.4675
 IR Inten    --     56.6769                 0.8362                 8.6474

                     79                     80                     81
                      A                      A                      A
 Frequencies --   1408.5163              1455.6948              1467.8757
 Red. masses --      1.4792                 1.1447                 1.1023
 Frc consts  --      1.7290                 1.4292                 1.3994
 IR Inten    --      3.7553                 9.3390                20.7260

                     82                     83                     84
                      A                      A                      A
 Frequencies --   1471.0365              1479.0360              1488.0074
 Red. masses --      1.1810                 1.1473                 1.1231
 Frc consts  --      1.5057                 1.4787                 1.4651
 IR Inten    --     71.5901                10.2024                 3.7934

                     85                     86                     87
                      A                      A                      A
 Frequencies --   1500.3519              1504.8693              1515.8736
 Red. masses --      2.1560                 1.0462                 1.0472
 Frc consts  --      2.8594                 1.3959                 1.4177
 IR Inten    --      4.4862                13.6029                 9.3653

                     88                     89                     90
                      A                      A                      A
 Frequencies --   1517.6409              1519.0576              1532.7774
 Red. masses --      1.0572                 1.0977                 1.0987
 Frc consts  --      1.4346                 1.4923                 1.5209
 IR Inten    --     26.2769                 9.9043                 6.4401

                     91                     92                     93
                      A                      A                      A
 Frequencies --   1532.9066              1543.0498              1643.2448
 Red. masses --      1.0469                 2.2636                 5.4790
 Frc consts  --      1.4494                 3.1755                 8.7168
 IR Inten    --     16.6730                19.3016                 1.3204

                     94                     95                     96
                      A                      A                      A
 Frequencies --   1663.4175              3052.6955              3059.1701
 Red. masses --      5.7477                 1.0461                 1.0420
 Frc consts  --      9.3702                 5.7434                 5.7456
 IR Inten    --     10.8590                75.0646                77.4873

                     97                     98                     99
                      A                      A                      A
 Frequencies --   3061.2387              3071.7931              3109.2736
 Red. masses --      1.0627                 1.0619                 1.0941
 Frc consts  --      5.8675                 5.9035                 6.2318
 IR Inten    --     10.2208                65.4928                15.0346

                    100                    101                    102
                      A                      A                      A
 Frequencies --   3111.4250              3127.3775              3131.0850
 Red. masses --      1.0615                 1.0986                 1.0609
 Frc consts  --      6.0549                 6.3309                 6.1281
 IR Inten    --      9.7418                26.5678                26.7152

                    103                    104                    105
                      A                      A                      A
 Frequencies --   3141.1892              3143.3311              3174.2879
 Red. masses --      1.0923                 1.0948                 1.1048
 Frc consts  --      6.3501                 6.3731                 6.5589
 IR Inten    --     48.8715                 4.1365                19.5877

                    106                    107                    108
                      A                      A                      A
 Frequencies --   3186.6835              3189.3817              3190.8621
 Red. masses --      1.1115                 1.0864                 1.0872
 Frc consts  --      6.6500                 6.5113                 6.5220
 IR Inten    --     10.8882                18.5856                 9.1202

                    109                    110                    111
                      A                      A                      A
 Frequencies --   3203.0327              3203.9588              3204.7161
 Red. masses --      1.0900                 1.1104                 1.1015
 Frc consts  --      6.5885                 6.7157                 6.6651
 IR Inten    --     12.5586                 6.6647                 7.0416

                    112                    113                    114
                      A                      A                      A
 Frequencies --   3208.8701              3222.3389              3530.2036
 Red. masses --      1.0941                 1.0976                 1.0766
 Frc consts  --      6.6375                 6.7146                 7.9052
 IR Inten    --     78.9916                34.7490               127.1494

 - Thermochemistry -
 -------------------
 Temperature   298.150 Kelvin.  Pressure   1.00000 Atm.
 Atom     1 has atomic number  8 and mass  15.99491

 Molecular mass:   316.09154 amu.
 Principal axes and moments of inertia in atomic units:
                           1         2         3
     Eigenvalues --  3843.93187********************
           X            0.99996  -0.00175   0.00922
           Y            0.00207   0.99937  -0.03536
           Z           -0.00915   0.03538   0.99933
 This molecule is an asymmetric top.
 Rotational symmetry number  1.
 Warning -- assumption of classical behavior for rotation
           may cause significant error
 Rotational temperatures (Kelvin)      0.02253     0.00728     0.00610
 Rotational constants (GHZ):           0.46950     0.15178     0.12701
 Zero-point vibrational energy     860712.6 (Joules/Mol)
                                  205.71525 (Kcal/Mol)
 Warning -- explicit consideration of  33 degrees of freedom as
           vibrations may cause significant error
 Vibrational temperatures:     16.09    26.68    37.37    79.32    91.35
          (Kelvin)            127.56   144.18   152.22   211.75   230.10
                              277.50   290.67   298.18   335.24   357.19
                              365.96   406.07   441.39   475.21   497.71
                              511.10   524.38   560.48   600.81   615.89
                              658.00   668.73   718.11   729.83   752.70
                              809.58   852.33   881.01   912.89   924.88
                              965.12  1026.23  1031.53  1103.23  1135.28
                             1160.75  1201.18  1210.69  1247.90  1289.94
                             1326.67  1345.16  1347.82  1407.06  1409.89
                             1441.90  1446.26  1462.57  1496.07  1517.86
                             1518.89  1535.86  1538.83  1573.70  1585.98
                             1601.86  1625.59  1636.02  1696.85  1706.50
                             1721.67  1732.45  1750.03  1754.71  1780.90
                             1807.55  1834.65  1840.36  1868.82  1908.42
                             1940.05  1961.44  1974.78  2026.54  2094.42
                             2111.95  2116.49  2128.00  2140.91  2158.67
                             2165.17  2181.00  2183.55  2185.59  2205.32
                             2205.51  2220.10  2364.26  2393.29  4392.15
                             4401.46  4404.44  4419.63  4473.55  4476.65
                             4499.60  4504.93  4519.47  4522.55  4567.09
                             4584.93  4588.81  4590.94  4608.45  4609.78
                             4610.87  4616.85  4636.23  5079.18

 Zero-point correction=                           0.327828 (Hartree/Particle)
 Thermal correction to Energy=                    0.348497
 Thermal correction to Enthalpy=                  0.349441
 Thermal correction to Gibbs Free Energy=         0.275583
 Sum of electronic and zero-point Energies=          -1638.530661
 Sum of electronic and thermal Energies=             -1638.509993
 Sum of electronic and thermal Enthalpies=           -1638.509048
 Sum of electronic and thermal Free Energies=        -1638.582906

                     E (Thermal)             CV                S
                      KCal/Mol        Cal/Mol-Kelvin    Cal/Mol-Kelvin
 Total                  218.685             78.433            155.446
 Electronic               0.000              0.000              0.000
 Translational            0.889              2.981             43.148
 Rotational               0.889              2.981             34.828
 Vibrational            216.908             72.471             77.469
 Vibration     1          0.593              1.987              7.789
 Vibration     2          0.593              1.986              6.784
 Vibration     3          0.593              1.985              6.115
 Vibration     4          0.596              1.976              4.624
 Vibration     5          0.597              1.972              4.346
 Vibration     6          0.601              1.957              3.689
 Vibration     7          0.604              1.949              3.450
 Vibration     8          0.605              1.945              3.345
 Vibration     9          0.617              1.906              2.708
 Vibration    10          0.622              1.891              2.551
 Vibration    11          0.635              1.850              2.200
 Vibration    12          0.639              1.837              2.115
 Vibration    13          0.641              1.830              2.068
 Vibration    14          0.654              1.790              1.856
 Vibration    15          0.662              1.766              1.743
 Vibration    16          0.665              1.755              1.700
 Vibration    17          0.681              1.707              1.520
 Vibration    18          0.697              1.661              1.380
 Vibration    19          0.713              1.615              1.259
 Vibration    20          0.724              1.584              1.185
 Vibration    21          0.731              1.565              1.143
 Vibration    22          0.738              1.545              1.103
 Vibration    23          0.757              1.492              1.002
 Vibration    24          0.781              1.432              0.900
 Vibration    25          0.790              1.409              0.865
 Vibration    26          0.815              1.345              0.774
 Vibration    27          0.822              1.328              0.752
 Vibration    28          0.855              1.252              0.660
 Vibration    29          0.862              1.234              0.640
 Vibration    30          0.878              1.199              0.603
 Vibration    31          0.918              1.112              0.518
 Vibration    32          0.950              1.048              0.463
 Vibration    33          0.972              1.006              0.429

 Optimization completed.
    -- Stationary point found.
 Normal termination of Gaussian 16 at Mon Sep 21 07:44:15 2020.

 ----------------------------------------------------------------------
 #p b3lyp/6-31G(d) scrf=(iefpcm,read,solvent=water) geom=allcheck guess
 =read
 ----------------------------------------------------------------------

 Structure from the checkpoint file:  "SM37_m0.n.7.pdb.xyz.mst.n.w.chk"
 -------------------
 SM37_m0.n.7.pdb.xyz
 -------------------
 Charge =  0 Multiplicity = 1

 SCF Done:  E(RB3LYP) =  -1638.85848919     A.U. after    5 cycles
 Normal termination of Gaussian 16 at Mon Sep 21 07:44:55 2020.

 -----------------------------
 #p B3LYP/6-31G* geom=allcheck
 -----------------------------

 Structure from the checkpoint file:  "SM37_m0.n.7.pdb.xyz.mst.n.w.chk"
 -------------------
 SM37_m0.n.7.pdb.xyz
 -------------------
 Charge =  0 Multiplicity = 1

 SCF Done:  E(RB3LYP) =  -1638.83138828     A.U. after   15 cycles
 Normal termination of Gaussian 16 at Mon Sep 21 07:46:00 2020.
 Gaussian 16:  ES64L-G16RevB.01 20-Dec-2017

 ----------------------------------------------------------------------
 #p mp2/aug-cc-pVDZ scf=(MaxCycle=2000,NoVarAcc,NoIncFock) maxdisk=120G
 B geom=allcheck
 ----------------------------------------------------------------------

 Structure from the checkpoint file:  "SM37_m0.n.7.pdb.xyz.mst.n.w.chk"
 -------------------
 SM37_m0.n.7.pdb.xyz
 -------------------
 Charge =  0 Multiplicity = 1

                         Standard orientation:
 ---------------------------------------------------------------------
 Center     Atomic      Atomic             Coordinates (Angstroms)
 Number     Number       Type             X           Y           Z
 ---------------------------------------------------------------------
      1          8           0        2.661226   -2.622883   -0.705408
      2         16           0        2.588951   -1.158039   -0.599075
      3          7           0        1.008997   -0.840959   -0.208156
      4          6           0        0.412746    0.486388    0.031051
      5          6           0        0.586104    1.503119   -1.123729
      6         16           0        0.779187    2.925237    0.074844
      7          8           0       -0.596056    3.505772    0.401733
      8          6           0        1.070313    1.393889    1.102834
      9          6           0       -1.073020    0.259834    0.368588
     10          6           0       -1.885806   -0.455502   -0.725386
     11          6           0       -3.339592   -0.609714   -0.337375
     12          6           0       -4.254685    0.433047   -0.538852
     13          6           0       -5.589320    0.299331   -0.153400
     14          6           0       -6.032539   -0.883881    0.442267
     15          6           0       -5.131143   -1.930273    0.647430
     16          6           0       -3.797831   -1.790722    0.259340
     17          7           0        3.515398   -0.580610    0.687575
     18          6           0        3.375508   -1.350342    1.930586
     19          6           0        4.909756   -0.249629    0.349030
     20          8           0        2.965899   -0.338464   -1.755317
     21          1           0        0.623624   -1.592157    0.362621
     22          1           0       -0.252820    1.631910   -1.808137
     23          1           0        1.520236    1.383518   -1.671805
     24          1           0        0.598080    1.438489    2.085470
     25          1           0        2.146612    1.229677    1.187751
     26          1           0       -1.499662    1.248373    0.564551
     27          1           0       -1.132758   -0.305784    1.306350
     28          1           0       -1.452166   -1.440720   -0.919215
     29          1           0       -1.811553    0.113562   -1.658825
     30          1           0       -3.918597    1.355074   -1.005221
     31          1           0       -6.283563    1.116829   -0.321821
     32          1           0       -7.070800   -0.990105    0.739961
     33          1           0       -5.465567   -2.856067    1.105017
     34          1           0       -3.101661   -2.609782    0.416242
     35          1           0        2.320341   -1.483631    2.172649
     36          1           0        3.838686   -0.766619    2.727728
     37          1           0        3.861586   -2.330958    1.871757
     38          1           0        4.925119    0.361483   -0.550919
     39          1           0        5.529596   -1.142601    0.201438
     40          1           0        5.312802    0.326662    1.183809
 ---------------------------------------------------------------------

 SCF Done:  E(RHF) =  -1632.40170069     A.U. after   15 cycles
 E2 =    -0.3116443170D+01 EUMP2 =    -0.16355181438634D+04

 The electronic state is 1-A.
 Alpha  occ. eigenvalues --  -92.25711 -92.08004 -20.57317 -20.57122 -20.52224
 Alpha  occ. eigenvalues --  -15.62980 -15.62893 -11.32891 -11.29921 -11.29014
 Alpha  occ. eigenvalues --  -11.28116 -11.27849 -11.25306 -11.25175 -11.24773
 Alpha  occ. eigenvalues --  -11.24513 -11.24415 -11.24213 -11.24131 -11.24030
 Alpha  occ. eigenvalues --   -9.22166  -9.06823  -6.90732  -6.90670  -6.90636
 Alpha  occ. eigenvalues --   -6.75033  -6.74912  -6.74784  -1.48259  -1.35318
 Alpha  occ. eigenvalues --   -1.32991  -1.27534  -1.25942  -1.16072  -1.13850
 Alpha  occ. eigenvalues --   -1.07536  -1.01753  -1.00996  -0.99902  -0.96507
 Alpha  occ. eigenvalues --   -0.95786  -0.91989  -0.85831  -0.83467  -0.83042
 Alpha  occ. eigenvalues --   -0.79915  -0.77574  -0.75057  -0.71875  -0.70580
 Alpha  occ. eigenvalues --   -0.69762  -0.67512  -0.66410  -0.65849  -0.64731
 Alpha  occ. eigenvalues --   -0.63832  -0.62747  -0.61798  -0.60664  -0.59744
 Alpha  occ. eigenvalues --   -0.59556  -0.58767  -0.58555  -0.57714  -0.56392
 Alpha  occ. eigenvalues --   -0.55817  -0.54735  -0.54551  -0.52870  -0.52313
 Alpha  occ. eigenvalues --   -0.51453  -0.50814  -0.50498  -0.49327  -0.49124
 Alpha  occ. eigenvalues --   -0.48603  -0.48184  -0.47044  -0.44937  -0.41931
 Alpha  occ. eigenvalues --   -0.40190  -0.36857  -0.33806  -0.32917
 Alpha virt. eigenvalues --    0.02248   0.03131   0.03817   0.04153   0.04508
 Alpha virt. eigenvalues --    0.04541   0.05306   0.05685   0.05932   0.06260
 Alpha virt. eigenvalues --    0.06596   0.07140   0.07538   0.07775   0.08467

 Mulliken charges:
               1
     1  O   -1.154761
     2  S    3.199021
     3  N   -1.016635
     4  C   -0.243400
     5  C    0.383046
     6  S    1.496780
     7  O   -1.248102
     8  C    0.762707
     9  C    0.131212
    10  C    0.976974
    11  C    1.042509
    12  C    0.567006
    13  C    0.005767
    14  C    0.678136
    15  C    0.079891
    16  C    0.486245
    17  N   -1.095499
    18  C    0.795908
    19  C    0.875583
    20  O   -1.165286
    21  H   -0.116559
    22  H   -0.230031
    23  H   -0.205189
    24  H   -0.369309
    25  H   -0.167623
    26  H   -0.094590
    27  H   -0.213502
    28  H   -0.329745
    29  H   -0.286781
    30  H   -0.677098
    31  H   -0.466146
    32  H   -0.436798
    33  H   -0.473104
    34  H   -0.653118
    35  H   -0.196694
    36  H   -0.156883
    37  H   -0.089852
    38  H   -0.142677
    39  H   -0.077250
    40  H   -0.174154
 Sum of Mulliken charges =  -0.00000

 Dipole moment (field-independent basis, Debye):
    X=              2.2631    Y=             -1.8801    Z=              3.9499  Tot=              4.9253
 Quadrupole moment (field-independent basis, Debye-Ang):
   XX=           -122.1109   YY=           -158.5533   ZZ=           -136.6622
   XY=             10.8431   XZ=             14.3193   YZ=            -12.9650

 Normal termination of Gaussian 16 at Mon Sep 21 09:11:06 2020.
