 Gaussian 16, Revision B.01,

 ----------------------------------------------------------------------
 #p b3lyp/6-31G(d) opt freq NoSymm scf=(MaxCycle=2000,NoVarAcc,NoIncFoc
 k) scrf=(iefpcm,read,solvent=water)
 ----------------------------------------------------------------------

 -------------------
 SM37_m0.n.4.pdb.xyz
 -------------------
 Symbolic Z-matrix:
 Charge =  0 Multiplicity = 1

 SCF Done:  E(RB3LYP) =  -1638.85798597     A.U. after   13 cycles
 SCF Done:  E(RB3LYP) =  -1638.85817970     A.U. after   10 cycles
 SCF Done:  E(RB3LYP) =  -1638.85813341     A.U. after   10 cycles
 SCF Done:  E(RB3LYP) =  -1638.85816287     A.U. after    9 cycles
 SCF Done:  E(RB3LYP) =  -1638.85820094     A.U. after    9 cycles
 SCF Done:  E(RB3LYP) =  -1638.85815314     A.U. after   10 cycles
 SCF Done:  E(RB3LYP) =  -1638.85815047     A.U. after    9 cycles
 SCF Done:  E(RB3LYP) =  -1638.85819988     A.U. after   10 cycles
 SCF Done:  E(RB3LYP) =  -1638.85820200     A.U. after    8 cycles
 SCF Done:  E(RB3LYP) =  -1638.85817092     A.U. after   10 cycles
 SCF Done:  E(RB3LYP) =  -1638.85819923     A.U. after   10 cycles
 SCF Done:  E(RB3LYP) =  -1638.85814251     A.U. after   10 cycles
 SCF Done:  E(RB3LYP) =  -1638.85819919     A.U. after   10 cycles
 SCF Done:  E(RB3LYP) =  -1638.85814250     A.U. after   10 cycles
 SCF Done:  E(RB3LYP) =  -1638.85819921     A.U. after   10 cycles
 SCF Done:  E(RB3LYP) =  -1638.85814228     A.U. after   10 cycles
 Optimization completed on the basis of negligible forces.
    -- Stationary point found.
 Normal termination of Gaussian 16 at Mon Sep 21 07:16:13 2020.

 --------------------------------------------------------------------
 #P Geom=AllCheck Guess=TCheck SCRF=Check GenChk RB3LYP/6-31G(d) Freq
 --------------------------------------------------------------------

 Structure from the checkpoint file:  "SM37_m0.n.4.pdb.xyz.mst.n.w.chk"
 -------------------
 SM37_m0.n.4.pdb.xyz
 -------------------
 Charge =  0 Multiplicity = 1

 SCF Done:  E(RB3LYP) =  -1638.85814228     A.U. after    1 cycles

  Exact polarizability: 283.157  16.794 273.513   7.372 -22.553 190.007
 Approx polarizability: 309.955  21.797 306.045  10.206 -24.144 222.373

 ******    1 imaginary frequencies (negative Signs) ******

                      1                      2                      3
                      A                      A                      A
 Frequencies --     -6.4368                31.6369                32.3023
 Red. masses --      4.9941                 5.3603                 3.8145
 Frc consts  --      0.0001                 0.0032                 0.0023
 IR Inten    --      4.1526                 1.5878                 0.5432

                      4                      5                      6
                      A                      A                      A
 Frequencies --     38.7899                64.8767                65.6404
 Red. masses --      4.5429                 3.9252                 5.3193
 Frc consts  --      0.0040                 0.0097                 0.0135
 IR Inten    --      1.3213                 3.1217                 6.3606

                      7                      8                      9
                      A                      A                      A
 Frequencies --     80.9287                98.6939               140.5524
 Red. masses --      3.5243                 4.6216                 3.5135
 Frc consts  --      0.0136                 0.0265                 0.0409
 IR Inten    --      7.5877                 1.7745                 6.8701

                     10                     11                     12
                      A                      A                      A
 Frequencies --    165.1936               176.2946               197.3238
 Red. masses --      5.9930                 4.7627                 1.0986
 Frc consts  --      0.0964                 0.0872                 0.0252
 IR Inten    --      8.7129                 8.9462                 1.5397

                     13                     14                     15
                      A                      A                      A
 Frequencies --    202.4220               205.0563               256.0383
 Red. masses --      1.1297                 5.4319                 4.2254
 Frc consts  --      0.0273                 0.1346                 0.1632
 IR Inten    --      1.1161                 6.9956                 7.0455

                     16                     17                     18
                      A                      A                      A
 Frequencies --    268.9760               287.3690               301.0823
 Red. masses --      4.0820                 3.4679                 2.5928
 Frc consts  --      0.1740                 0.1687                 0.1385
 IR Inten    --      3.0732                 8.6454                 1.2175

                     19                     20                     21
                      A                      A                      A
 Frequencies --    309.6493               342.2488               354.0695
 Red. masses --      3.4338                 2.9099                 3.0491
 Frc consts  --      0.1940                 0.2008                 0.2252
 IR Inten    --      4.3153                 7.1435                 6.2140

                     22                     23                     24
                      A                      A                      A
 Frequencies --    360.0507               374.3571               415.8490
 Red. masses --      2.8212                 2.8746                 2.9727
 Frc consts  --      0.2155                 0.2374                 0.3029
 IR Inten    --     39.1247                 4.7625                 7.9531

                     25                     26                     27
                      A                      A                      A
 Frequencies --    420.1017               462.5212               468.9324
 Red. masses --      2.9794                 4.0293                 4.3679
 Frc consts  --      0.3098                 0.5079                 0.5659
 IR Inten    --      0.0447                19.5234                 3.7142

                     28                     29                     30
                      A                      A                      A
 Frequencies --    491.3201               520.8338               545.0133
 Red. masses --      4.1193                 3.2380                 5.5637
 Frc consts  --      0.5859                 0.5175                 0.9737
 IR Inten    --     17.7438                18.9047                88.9363

                     31                     32                     33
                      A                      A                      A
 Frequencies --    557.5350               602.4695               607.6597
 Red. masses --      4.7959                 3.5489                 3.8585
 Frc consts  --      0.8783                 0.7589                 0.8394
 IR Inten    --    128.7880                14.8904                98.9035

                     34                     35                     36
                      A                      A                      A
 Frequencies --    635.0232               641.3588               689.0689
 Red. masses --      6.3312                 4.5204                 4.6100
 Frc consts  --      1.5042                 1.0955                 1.2897
 IR Inten    --      0.6376                36.7685               188.4406

                     37                     38                     39
                      A                      A                      A
 Frequencies --    718.6148               726.6047               766.0507
 Red. masses --      2.0598                 3.3306                 1.6716
 Frc consts  --      0.6267                 1.0360                 0.5780
 IR Inten    --     33.4335               100.6590                28.8340

                     40                     41                     42
                      A                      A                      A
 Frequencies --    779.4154               801.7282               825.6945
 Red. masses --      1.4629                 3.2140                 2.0613
 Frc consts  --      0.5236                 1.2172                 0.8280
 IR Inten    --     31.6620                 6.5293                26.4952

                     43                     44                     45
                      A                      A                      A
 Frequencies --    836.7681               868.6525               871.8103
 Red. masses --      2.5809                 1.2756                 2.8712
 Frc consts  --      1.0647                 0.5671                 1.2858
 IR Inten    --     51.7626                 4.5095               157.3369

                     46                     47                     48
                      A                      A                      A
 Frequencies --    908.8738               935.1556               959.9526
 Red. masses --      2.3400                 1.4833                 2.9802
 Frc consts  --      1.1389                 0.7643                 1.6180
 IR Inten    --     80.3060                 5.3936               233.3602

                     49                     50                     51
                      A                      A                      A
 Frequencies --    977.8236               980.6412               988.4814
 Red. masses --      2.0819                 1.4100                 2.2629
 Frc consts  --      1.1728                 0.7989                 1.3027
 IR Inten    --     88.7479                10.9985                 8.8298

                     52                     53                     54
                      A                      A                      A
 Frequencies --   1007.3499              1016.6382              1040.6300
 Red. masses --      1.2599                 6.1801                 4.2072
 Frc consts  --      0.7532                 3.7634                 2.6844
 IR Inten    --      0.5529                 0.2720                21.7149

                     55                     56                     57
                      A                      A                      A
 Frequencies --   1055.5678              1057.8244              1070.6129
 Red. masses --      2.2154                 1.2098                 2.4804
 Frc consts  --      1.4544                 0.7976                 1.6751
 IR Inten    --     12.3098                 6.4872               174.5043

                     58                     59                     60
                      A                      A                      A
 Frequencies --   1080.5773              1088.0972              1104.9709
 Red. masses --      1.5214                 1.9810                 5.5902
 Frc consts  --      1.0466                 1.3819                 4.0214
 IR Inten    --     19.0038                 4.5850               242.7576

                     61                     62                     63
                      A                      A                      A
 Frequencies --   1125.2982              1134.1690              1137.1296
 Red. masses --      2.4788                 1.2251                 2.1129
 Frc consts  --      1.8494                 0.9285                 1.6097
 IR Inten    --     18.6718                 4.0205                45.6224

                     64                     65                     66
                      A                      A                      A
 Frequencies --   1177.9816              1187.9387              1197.9655
 Red. masses --      1.3668                 1.0958                 1.2891
 Frc consts  --      1.1175                 0.9111                 1.0900
 IR Inten    --      2.1506                 0.3200                 1.9635

                     67                     68                     69
                      A                      A                      A
 Frequencies --   1205.7022              1215.0509              1233.5403
 Red. masses --      1.1281                 1.3333                 4.0863
 Frc consts  --      0.9662                 1.1598                 3.6634
 IR Inten    --      0.3843                 3.9689                18.7720

                     70                     71                     72
                      A                      A                      A
 Frequencies --   1237.0029              1252.1255              1271.8742
 Red. masses --      2.8072                 2.3797                 1.6210
 Frc consts  --      2.5309                 2.1982                 1.5450
 IR Inten    --      1.2608                59.6871                77.7011

                     73                     74                     75
                      A                      A                      A
 Frequencies --   1289.7980              1296.4250              1319.0352
 Red. masses --      5.1351                 2.1270                 1.4895
 Frc consts  --      5.0331                 2.1063                 1.5268
 IR Inten    --    338.3580                69.6010                 8.1688

                     76                     77                     78
                      A                      A                      A
 Frequencies --   1344.0826              1360.3729              1373.1817
 Red. masses --      1.3512                 2.5817                 1.4272
 Frc consts  --      1.4383                 2.8149                 1.5856
 IR Inten    --     58.2635                 0.1450                 3.1921

                     79                     80                     81
                      A                      A                      A
 Frequencies --   1405.3621              1455.3060              1457.6723
 Red. masses --      1.4542                 1.1694                 1.0971
 Frc consts  --      1.6921                 1.4592                 1.3735
 IR Inten    --      7.0828                38.0305                22.2335

                     82                     83                     84
                      A                      A                      A
 Frequencies --   1463.6825              1477.4973              1480.5959
 Red. masses --      1.1905                 1.1525                 1.1462
 Frc consts  --      1.5027                 1.4823                 1.4804
 IR Inten    --     83.0339                 2.1632                 8.2035

                     85                     86                     87
                      A                      A                      A
 Frequencies --   1497.6015              1499.9692              1505.5281
 Red. masses --      1.0791                 2.1380                 1.0443
 Frc consts  --      1.4259                 2.8342                 1.3947
 IR Inten    --      3.0589                 4.3334                 7.1133

                     88                     89                     90
                      A                      A                      A
 Frequencies --   1514.3301              1517.3481              1533.1568
 Red. masses --      1.0482                 1.0535                 1.0525
 Frc consts  --      1.4163                 1.4291                 1.4577
 IR Inten    --     15.6551                37.4968                13.7118

                     91                     92                     93
                      A                      A                      A
 Frequencies --   1535.3513              1543.3554              1642.7245
 Red. masses --      1.0971                 2.2529                 5.5114
 Frc consts  --      1.5238                 3.1617                 8.7628
 IR Inten    --      8.4241                21.0611                 1.3805

                     94                     95                     96
                      A                      A                      A
 Frequencies --   1661.6339              3051.9661              3062.1780
 Red. masses --      5.6903                 1.0465                 1.0430
 Frc consts  --      9.2566                 5.7433                 5.7623
 IR Inten    --     10.1363                63.7133                63.6023

                     97                     98                     99
                      A                      A                      A
 Frequencies --   3065.3155              3073.2180              3105.8304
 Red. masses --      1.0608                 1.0611                 1.1016
 Frc consts  --      5.8727                 5.9046                 6.2608
 IR Inten    --     12.0522                69.5342                29.2465

                    100                    101                    102
                      A                      A                      A
 Frequencies --   3126.9051              3128.2950              3131.5463
 Red. masses --      1.0983                 1.0572                 1.0622
 Frc consts  --      6.3270                 6.0958                 6.1375
 IR Inten    --     24.3730                14.9604                 8.9912

                    103                    104                    105
                      A                      A                      A
 Frequencies --   3139.7063              3144.7101              3191.0368
 Red. masses --      1.0922                 1.0965                 1.0870
 Frc consts  --      6.3436                 6.3887                 6.5212
 IR Inten    --     42.3912                20.4099                16.0223

                    106                    107                    108
                      A                      A                      A
 Frequencies --   3192.2168              3194.3133              3199.9960
 Red. masses --      1.0876                 1.1025                 1.1108
 Frc consts  --      6.5298                 6.6277                 6.7015
 IR Inten    --     14.1673                 8.9238                 3.9184

                    109                    110                    111
                      A                      A                      A
 Frequencies --   3202.8236              3203.3837              3207.6019
 Red. masses --      1.1013                 1.0894                 1.1107
 Frc consts  --      6.6564                 6.5865                 6.7327
 IR Inten    --      5.6061                14.6467                 1.9902

                    112                    113                    114
                      A                      A                      A
 Frequencies --   3213.2702              3224.2539              3519.6980
 Red. masses --      1.0936                 1.0977                 1.0750
 Frc consts  --      6.6528                 6.7236                 7.8461
 IR Inten    --     70.1876                32.3752                89.1176

 - Thermochemistry -
 -------------------
 Temperature   298.150 Kelvin.  Pressure   1.00000 Atm.
 Atom     1 has atomic number  8 and mass  15.99491

 Molecular mass:   316.09154 amu.
 Principal axes and moments of inertia in atomic units:
                           1         2         3
     Eigenvalues --  4497.83004********************
           X            0.99990   0.01342  -0.00382
           Y           -0.01338   0.99986   0.01050
           Z            0.00396  -0.01045   0.99994
 This molecule is an asymmetric top.
 Rotational symmetry number  1.
 Warning -- assumption of classical behavior for rotation
           may cause significant error
 Rotational temperatures (Kelvin)      0.01926     0.00783     0.00609
 Rotational constants (GHZ):           0.40125     0.16306     0.12689
    1 imaginary frequencies ignored.
 Zero-point vibrational energy     860161.8 (Joules/Mol)
                                  205.58361 (Kcal/Mol)
 Warning -- explicit consideration of  32 degrees of freedom as
           vibrations may cause significant error
 Vibrational temperatures:     45.52    46.48    55.81    93.34    94.44
          (Kelvin)            116.44   142.00   202.22   237.68   253.65
                              283.90   291.24   295.03   368.38   387.00
                              413.46   433.19   445.52   492.42   509.43
                              518.03   538.62   598.31   604.43   665.46
                              674.69   706.90   749.36   784.15   802.17
                              866.82   874.29   913.66   922.77   991.42
                             1033.93  1045.42  1102.18  1121.40  1153.51
                             1187.99  1203.92  1249.80  1254.34  1307.67
                             1345.48  1381.16  1406.87  1410.92  1422.20
                             1449.35  1462.72  1497.23  1518.73  1521.97
                             1540.37  1554.71  1565.53  1589.81  1619.05
                             1631.82  1636.08  1694.85  1709.18  1723.61
                             1734.74  1748.19  1774.79  1779.77  1801.53
                             1829.94  1855.73  1865.27  1897.80  1933.84
                             1957.27  1975.70  2022.00  2093.86  2097.27
                             2105.91  2125.79  2130.25  2154.71  2158.12
                             2166.12  2178.78  2183.13  2205.87  2209.03
                             2220.54  2363.51  2390.72  4391.10  4405.79
                             4410.31  4421.68  4468.60  4498.92  4500.92
                             4505.60  4517.34  4524.54  4591.19  4592.89
                             4595.90  4604.08  4608.15  4608.95  4615.02
                             4623.18  4638.98  5064.06

 Zero-point correction=                           0.327618 (Hartree/Particle)
 Thermal correction to Energy=                    0.347541
 Thermal correction to Enthalpy=                  0.348485
 Thermal correction to Gibbs Free Energy=         0.277903
 Sum of electronic and zero-point Energies=          -1638.530524
 Sum of electronic and thermal Energies=             -1638.510601
 Sum of electronic and thermal Enthalpies=           -1638.509657
 Sum of electronic and thermal Free Energies=        -1638.580239

                     E (Thermal)             CV                S
                      KCal/Mol        Cal/Mol-Kelvin    Cal/Mol-Kelvin
 Total                  218.085             76.555            148.553
 Electronic               0.000              0.000              0.000
 Translational            0.889              2.981             43.148
 Rotational               0.889              2.981             34.914
 Vibrational            216.308             70.594             70.491
 Vibration     1          0.594              1.983              5.724
 Vibration     2          0.594              1.983              5.683
 Vibration     3          0.594              1.981              5.320
 Vibration     4          0.597              1.971              4.303
 Vibration     5          0.597              1.971              4.280
 Vibration     6          0.600              1.962              3.868
 Vibration     7          0.604              1.950              3.480
 Vibration     8          0.615              1.913              2.796
 Vibration     9          0.624              1.885              2.489
 Vibration    10          0.628              1.872              2.367
 Vibration    11          0.637              1.844              2.158
 Vibration    12          0.639              1.836              2.111
 Vibration    13          0.640              1.833              2.087
 Vibration    14          0.666              1.753              1.689
 Vibration    15          0.673              1.730              1.603
 Vibration    16          0.685              1.697              1.489
 Vibration    17          0.693              1.672              1.411
 Vibration    18          0.699              1.655              1.364
 Vibration    19          0.721              1.591              1.202
 Vibration    20          0.730              1.567              1.148
 Vibration    21          0.735              1.555              1.122
 Vibration    22          0.745              1.525              1.062
 Vibration    23          0.779              1.436              0.906
 Vibration    24          0.783              1.427              0.892
 Vibration    25          0.820              1.333              0.759
 Vibration    26          0.826              1.319              0.741
 Vibration    27          0.847              1.269              0.680
 Vibration    28          0.876              1.204              0.608
 Vibration    29          0.900              1.151              0.555
 Vibration    30          0.913              1.123              0.529
 Vibration    31          0.961              1.027              0.445
 Vibration    32          0.966              1.016              0.437

 Optimization completed.
    -- Stationary point found.
 Normal termination of Gaussian 16 at Mon Sep 21 07:31:53 2020.

 ----------------------------------------------------------------------
 #p b3lyp/6-31G(d) scrf=(iefpcm,read,solvent=water) geom=allcheck guess
 =read
 ----------------------------------------------------------------------

 Structure from the checkpoint file:  "SM37_m0.n.4.pdb.xyz.mst.n.w.chk"
 -------------------
 SM37_m0.n.4.pdb.xyz
 -------------------
 Charge =  0 Multiplicity = 1

 SCF Done:  E(RB3LYP) =  -1638.85814137     A.U. after    6 cycles
 Normal termination of Gaussian 16 at Mon Sep 21 07:32:41 2020.

 -----------------------------
 #p B3LYP/6-31G* geom=allcheck
 -----------------------------

 Structure from the checkpoint file:  "SM37_m0.n.4.pdb.xyz.mst.n.w.chk"
 -------------------
 SM37_m0.n.4.pdb.xyz
 -------------------
 Charge =  0 Multiplicity = 1

 SCF Done:  E(RB3LYP) =  -1638.83281859     A.U. after   15 cycles
 Normal termination of Gaussian 16 at Mon Sep 21 07:33:46 2020.
 Gaussian 16:  ES64L-G16RevB.01 20-Dec-2017

 ----------------------------------------------------------------------
 #p mp2/aug-cc-pVDZ scf=(MaxCycle=2000,NoVarAcc,NoIncFock) maxdisk=120G
 B geom=allcheck
 ----------------------------------------------------------------------

 Structure from the checkpoint file:  "SM37_m0.n.4.pdb.xyz.mst.n.w.chk"
 -------------------
 SM37_m0.n.4.pdb.xyz
 -------------------
 Charge =  0 Multiplicity = 1

                         Standard orientation:
 ---------------------------------------------------------------------
 Center     Atomic      Atomic             Coordinates (Angstroms)
 Number     Number       Type             X           Y           Z
 ---------------------------------------------------------------------
      1          8           0       -3.469390    0.789814   -0.036116
      2         16           0       -2.834467   -0.459760   -0.470976
      3          7           0       -1.289607   -0.457505    0.201456
      4          6           0       -0.443733    0.755590    0.200768
      5          6           0       -0.863216    1.812685    1.252324
      6         16           0       -0.403365    3.224328    0.114028
      7          8           0        1.066617    3.589210    0.314878
      8          6           0       -0.531538    1.733568   -1.005608
      9          6           0        1.010174    0.316585    0.462380
     10          6           0        1.672133   -0.519895   -0.646901
     11          6           0        3.123028   -0.812767   -0.332198
     12          6           0        3.506295   -2.056835    0.183607
     13          6           0        4.840388   -2.323193    0.499513
     14          6           0        5.814807   -1.343129    0.302590
     15          6           0        5.445771   -0.098019   -0.212762
     16          6           0        4.111196    0.163490   -0.527097
     17          7           0       -3.620083   -1.720936    0.263364
     18          6           0       -3.340293   -3.074115   -0.232897
     19          6           0       -3.787185   -1.616483    1.715864
     20          8           0       -2.794291   -0.766364   -1.906896
     21          1           0       -0.796531   -1.292529   -0.116045
     22          1           0       -0.317962    1.823564    2.197351
     23          1           0       -1.940280    1.853052    1.411265
     24          1           0        0.257400    1.690765   -1.756907
     25          1           0       -1.511968    1.762980   -1.481497
     26          1           0        1.035961   -0.234532    1.409122
     27          1           0        1.587956    1.233734    0.608862
     28          1           0        1.603258    0.020475   -1.597207
     29          1           0        1.145437   -1.469434   -0.785644
     30          1           0        2.751272   -2.823434    0.334027
     31          1           0        5.117164   -3.295096    0.895286
     32          1           0        6.852757   -1.547756    0.544876
     33          1           0        6.197642    0.668211   -0.373888
     34          1           0        3.832378    1.132999   -0.930651
     35          1           0       -3.254463   -3.048166   -1.317176
     36          1           0       -4.186826   -3.705567    0.043583
     37          1           0       -2.426897   -3.495843    0.204056
     38          1           0       -4.067144   -0.597190    1.976135
     39          1           0       -2.877203   -1.899480    2.256833
     40          1           0       -4.599256   -2.286939    2.002612
 ---------------------------------------------------------------------

 SCF Done:  E(RHF) =  -1632.40496299     A.U. after   16 cycles
 E2 =    -0.3114247179D+01 EUMP2 =    -0.16355192101639D+04

 The electronic state is 1-A.
 Alpha  occ. eigenvalues --  -92.25555 -92.07525 -20.57213 -20.57138 -20.51817
 Alpha  occ. eigenvalues --  -15.62779 -15.62736 -11.32661 -11.29397 -11.29016
 Alpha  occ. eigenvalues --  -11.27821 -11.27540 -11.25589 -11.25525 -11.25181
 Alpha  occ. eigenvalues --  -11.24788 -11.24649 -11.24565 -11.24383 -11.24281
 Alpha  occ. eigenvalues --   -9.22039  -9.06342  -6.90600  -6.90536  -6.90515
 Alpha  occ. eigenvalues --   -6.74550  -6.74427  -6.74299  -1.48287  -1.35308
 Alpha  occ. eigenvalues --   -1.32584  -1.27562  -1.25634  -1.16345  -1.13370
 Alpha  occ. eigenvalues --   -1.07782  -1.02010  -1.00880  -0.99826  -0.96893
 Alpha  occ. eigenvalues --   -0.95384  -0.91908  -0.85364  -0.83548  -0.83161
 Alpha  occ. eigenvalues --   -0.80171  -0.76757  -0.74737  -0.71484  -0.70510
 Alpha  occ. eigenvalues --   -0.70030  -0.67825  -0.66368  -0.65692  -0.64702
 Alpha  occ. eigenvalues --   -0.64115  -0.62908  -0.61464  -0.60587  -0.59748
 Alpha  occ. eigenvalues --   -0.58909  -0.58654  -0.58500  -0.57759  -0.56275
 Alpha  occ. eigenvalues --   -0.55706  -0.54744  -0.54135  -0.52769  -0.52298
 Alpha  occ. eigenvalues --   -0.51728  -0.51159  -0.50547  -0.49512  -0.49270
 Alpha  occ. eigenvalues --   -0.48927  -0.48258  -0.47107  -0.43818  -0.42157
 Alpha  occ. eigenvalues --   -0.39826  -0.36449  -0.34050  -0.33205
 Alpha virt. eigenvalues --    0.01982   0.03289   0.03623   0.04029   0.04359
 Alpha virt. eigenvalues --    0.04925   0.05245   0.05731   0.05951   0.06098
 Alpha virt. eigenvalues --    0.06779   0.07166   0.07750   0.07876   0.08495

 Mulliken charges:
               1
     1  O   -1.188513
     2  S    3.186371
     3  N   -1.050935
     4  C    0.559441
     5  C    0.287627
     6  S    1.492346
     7  O   -1.257994
     8  C    0.470580
     9  C   -0.049083
    10  C    0.853323
    11  C    0.958370
    12  C    0.489426
    13  C    0.212144
    14  C    0.647633
    15  C    0.010255
    16  C    0.542768
    17  N   -1.247161
    18  C    0.786161
    19  C    0.823463
    20  O   -1.174292
    21  H   -0.047507
    22  H   -0.289184
    23  H   -0.176362
    24  H   -0.264118
    25  H   -0.222674
    26  H   -0.160661
    27  H   -0.130919
    28  H   -0.260958
    29  H   -0.381909
    30  H   -0.652840
    31  H   -0.474794
    32  H   -0.436912
    33  H   -0.467950
    34  H   -0.695327
    35  H   -0.124221
    36  H   -0.160216
    37  H   -0.038931
    38  H   -0.129712
    39  H   -0.007140
    40  H   -0.229593
 Sum of Mulliken charges =  -0.00000

 Dipole moment (field-independent basis, Debye):
    X=             -0.7286    Y=             -6.4951    Z=              2.5623  Tot=              7.0201
 Quadrupole moment (field-independent basis, Debye-Ang):
   XX=           -139.1122   YY=           -140.8885   ZZ=           -138.3944
   XY=              3.2057   XZ=            -11.4176   YZ=             -7.3125

 Normal termination of Gaussian 16 at Mon Sep 21 08:56:49 2020.
