 Gaussian 16, Revision B.01,

 ----------------------------------------------------------------------
 #p b3lyp/6-31G(d) opt freq NoSymm scf=(MaxCycle=2000,NoVarAcc,NoIncFoc
 k) scrf=(iefpcm,read,solvent=water)
 ----------------------------------------------------------------------

 --------------------
 SM37_m0.n.10.pdb.xyz
 --------------------
 Symbolic Z-matrix:
 Charge =  0 Multiplicity = 1

 SCF Done:  E(RB3LYP) =  -1638.85252022     A.U. after   13 cycles
 SCF Done:  E(RB3LYP) =  -1638.85237022     A.U. after   11 cycles
 SCF Done:  E(RB3LYP) =  -1638.85217960     A.U. after   10 cycles
 SCF Done:  E(RB3LYP) =  -1638.85264770     A.U. after   10 cycles
 SCF Done:  E(RB3LYP) =  -1638.85267308     A.U. after   10 cycles
 SCF Done:  E(RB3LYP) =  -1638.85246643     A.U. after   10 cycles
 SCF Done:  E(RB3LYP) =  -1638.85249359     A.U. after   10 cycles
 SCF Done:  E(RB3LYP) =  -1638.85249692     A.U. after    9 cycles
 SCF Done:  E(RB3LYP) =  -1638.85252494     A.U. after    8 cycles
 SCF Done:  E(RB3LYP) =  -1638.85253466     A.U. after    8 cycles
 SCF Done:  E(RB3LYP) =  -1638.85245773     A.U. after    8 cycles
 SCF Done:  E(RB3LYP) =  -1638.85245559     A.U. after    8 cycles
 SCF Done:  E(RB3LYP) =  -1638.85245627     A.U. after    8 cycles
 SCF Done:  E(RB3LYP) =  -1638.85246372     A.U. after    8 cycles
 SCF Done:  E(RB3LYP) =  -1638.85246432     A.U. after    8 cycles
 SCF Done:  E(RB3LYP) =  -1638.85246529     A.U. after    8 cycles
 Optimization completed.
    -- Stationary point found.
 Normal termination of Gaussian 16 at Mon Sep 21 07:00:31 2020.

 --------------------------------------------------------------------
 #P Geom=AllCheck Guess=TCheck SCRF=Check GenChk RB3LYP/6-31G(d) Freq
 --------------------------------------------------------------------

 Structure from the checkpoint file:  "SM37_m0.n.10.pdb.xyz.mst.n.w.chk"
 --------------------
 SM37_m0.n.10.pdb.xyz
 --------------------
 Charge =  0 Multiplicity = 1

 SCF Done:  E(RB3LYP) =  -1638.85246529     A.U. after    1 cycles

  Exact polarizability: 252.841   8.822 273.046 -42.320   9.317 218.469
 Approx polarizability: 287.395  12.133 298.826 -49.995  11.970 251.722

 ******    1 imaginary frequencies (negative Signs) ******

                      1                      2                      3
                      A                      A                      A
 Frequencies --     -7.6157                19.6319                33.2069
 Red. masses --      4.8148                 4.2954                 4.5603
 Frc consts  --      0.0002                 0.0010                 0.0030
 IR Inten    --      3.4077                 0.5902                 1.5545

                      4                      5                      6
                      A                      A                      A
 Frequencies --     43.9383                58.4130                64.0569
 Red. masses --      3.0289                 4.2527                 8.3575
 Frc consts  --      0.0034                 0.0085                 0.0202
 IR Inten    --      3.8777                 0.2675                14.0759

                      7                      8                      9
                      A                      A                      A
 Frequencies --     85.3447               136.1135               141.0202
 Red. masses --      3.3637                 7.1859                 4.0249
 Frc consts  --      0.0144                 0.0784                 0.0472
 IR Inten    --      2.3852                 7.0799                 4.7131

                     10                     11                     12
                      A                      A                      A
 Frequencies --    166.9798               192.0534               196.8504
 Red. masses --      4.0254                 1.7761                 2.1868
 Frc consts  --      0.0661                 0.0386                 0.0499
 IR Inten    --      6.7290                 2.6940                 6.6860

                     13                     14                     15
                      A                      A                      A
 Frequencies --    207.3794               234.9026               238.0949
 Red. masses --      1.3422                 3.2980                 4.9136
 Frc consts  --      0.0340                 0.1072                 0.1641
 IR Inten    --      1.1227                11.0546                 3.1363

                     16                     17                     18
                      A                      A                      A
 Frequencies --    249.7393               288.6686               311.4903
 Red. masses --      4.0678                 3.2013                 2.4220
 Frc consts  --      0.1495                 0.1572                 0.1385
 IR Inten    --     15.8060                 5.6034                 3.0976

                     19                     20                     21
                      A                      A                      A
 Frequencies --    324.6422               344.9903               356.3379
 Red. masses --      2.2308                 3.4158                 2.7921
 Frc consts  --      0.1385                 0.2395                 0.2089
 IR Inten    --      0.6958                10.6578                 8.0311

                     22                     23                     24
                      A                      A                      A
 Frequencies --    362.4677               380.6674               419.8798
 Red. masses --      2.9700                 2.9557                 3.0287
 Frc consts  --      0.2299                 0.2523                 0.3146
 IR Inten    --     11.2980                 9.5602                 0.5975

                     25                     26                     27
                      A                      A                      A
 Frequencies --    433.2638               452.0137               468.8534
 Red. masses --      4.5646                 4.4255                 3.4244
 Frc consts  --      0.5048                 0.5327                 0.4435
 IR Inten    --      2.7677                24.0452                30.1274

                     28                     29                     30
                      A                      A                      A
 Frequencies --    496.9073               502.5729               536.9473
 Red. masses --      4.3075                 3.1900                 1.9677
 Frc consts  --      0.6267                 0.4747                 0.3342
 IR Inten    --      9.5443                17.2067               111.8389

                     31                     32                     33
                      A                      A                      A
 Frequencies --    550.4473               570.4210               603.6325
 Red. masses --      3.9918                 3.3070                 3.9060
 Frc consts  --      0.7126                 0.6340                 0.8386
 IR Inten    --    148.4526                29.6622                43.1595

                     34                     35                     36
                      A                      A                      A
 Frequencies --    634.5890               655.8528               676.1053
 Red. masses --      6.3394                 4.2751                 6.3032
 Frc consts  --      1.5041                 1.0834                 1.6976
 IR Inten    --      0.5469                80.7695               230.3865

                     37                     38                     39
                      A                      A                      A
 Frequencies --    705.9901               718.8444               757.9002
 Red. masses --      3.6658                 2.0658                 1.9295
 Frc consts  --      1.0765                 0.6289                 0.6530
 IR Inten    --      0.9742                37.4859                46.0444

                     40                     41                     42
                      A                      A                      A
 Frequencies --    780.7973               793.0594               800.9699
 Red. masses --      2.1721                 3.5738                 2.2923
 Frc consts  --      0.7802                 1.3243                 0.8665
 IR Inten    --      6.8177                 5.6170                28.3070

                     43                     44                     45
                      A                      A                      A
 Frequencies --    846.5154               870.7219               903.0415
 Red. masses --      2.5630                 1.2585                 2.1524
 Frc consts  --      1.0821                 0.5621                 1.0342
 IR Inten    --      6.8609                 1.1074                40.0095

                     46                     47                     48
                      A                      A                      A
 Frequencies --    920.7318               925.5275               935.8031
 Red. masses --      2.5560                 1.6416                 3.1912
 Frc consts  --      1.2767                 0.8285                 1.6466
 IR Inten    --    145.0346                16.9189               198.4417

                     49                     50                     51
                      A                      A                      A
 Frequencies --    952.5558               985.9390               998.0672
 Red. masses --      1.7642                 1.3486                 2.6020
 Frc consts  --      0.9431                 0.7724                 1.5272
 IR Inten    --     11.2763                 3.8259                21.1983

                     52                     53                     54
                      A                      A                      A
 Frequencies --   1007.7954              1017.3998              1029.3104
 Red. masses --      1.3823                 4.2448                 3.6295
 Frc consts  --      0.8272                 2.5887                 2.2657
 IR Inten    --      6.3261                 1.4165                75.7469

                     55                     56                     57
                      A                      A                      A
 Frequencies --   1057.5092              1063.3904              1068.2703
 Red. masses --      2.3563                 2.3992                 1.5785
 Frc consts  --      1.5526                 1.5984                 1.0613
 IR Inten    --     77.6191               129.9478                20.6271

                     58                     59                     60
                      A                      A                      A
 Frequencies --   1077.4183              1087.9384              1103.4056
 Red. masses --      1.1896                 2.0165                 6.3121
 Frc consts  --      0.8136                 1.4063                 4.5279
 IR Inten    --     28.6827                 3.6193               306.7681

                     61                     62                     63
                      A                      A                      A
 Frequencies --   1119.4752              1128.0637              1137.3222
 Red. masses --      1.7802                 1.2506                 2.6563
 Frc consts  --      1.3145                 0.9377                 2.0244
 IR Inten    --     13.1618                 6.0751                11.4019

                     64                     65                     66
                      A                      A                      A
 Frequencies --   1178.1690              1187.3330              1203.2855
 Red. masses --      1.3785                 1.0962                 1.3085
 Frc consts  --      1.1274                 0.9105                 1.1163
 IR Inten    --      5.9657                 0.0913                13.1270

                     67                     68                     69
                      A                      A                      A
 Frequencies --   1208.1555              1216.6476              1218.3615
 Red. masses --      1.1600                 1.6349                 2.0725
 Frc consts  --      0.9976                 1.4258                 1.8126
 IR Inten    --      0.2484                15.1411                34.0728

                     70                     71                     72
                      A                      A                      A
 Frequencies --   1226.0390              1247.8999              1266.6058
 Red. masses --      2.4905                 1.7161                 1.9875
 Frc consts  --      2.2057                 1.5746                 1.8787
 IR Inten    --      9.9059                85.5428                40.5027

                     73                     74                     75
                      A                      A                      A
 Frequencies --   1271.0712              1277.8099              1298.8508
 Red. masses --      2.0153                 1.8397                 2.9761
 Frc consts  --      1.9184                 1.7698                 2.9581
 IR Inten    --     81.3703                62.3611               216.2442

                     76                     77                     78
                      A                      A                      A
 Frequencies --   1349.0565              1365.6856              1378.6680
 Red. masses --      2.6867                 1.7555                 1.4039
 Frc consts  --      2.8809                 1.9290                 1.5722
 IR Inten    --      2.4481                 0.2850                15.3245

                     79                     80                     81
                      A                      A                      A
 Frequencies --   1391.9287              1444.5953              1453.7955
 Red. masses --      1.4489                 1.1725                 1.1264
 Frc consts  --      1.6539                 1.4416                 1.4027
 IR Inten    --     22.3559                52.1130                16.9840

                     82                     83                     84
                      A                      A                      A
 Frequencies --   1461.2357              1471.6472              1479.2784
 Red. masses --      1.1708                 1.1279                 1.1550
 Frc consts  --      1.4729                 1.4393                 1.4891
 IR Inten    --     26.6689                18.1740                 6.2351

                     85                     86                     87
                      A                      A                      A
 Frequencies --   1491.2146              1500.0704              1501.3020
 Red. masses --      1.1568                 1.8920                 1.0564
 Frc consts  --      1.5156                 2.5083                 1.4028
 IR Inten    --     10.3681                13.4988                10.9328

                     88                     89                     90
                      A                      A                      A
 Frequencies --   1511.9895              1515.7462              1519.0446
 Red. masses --      1.0628                 1.0569                 1.0716
 Frc consts  --      1.4315                 1.4307                 1.4569
 IR Inten    --     17.8388                15.6419                12.4450

                     91                     92                     93
                      A                      A                      A
 Frequencies --   1530.8354              1543.8751              1639.7279
 Red. masses --      1.0475                 2.1874                 5.4994
 Frc consts  --      1.4464                 3.0719                 8.7119
 IR Inten    --     19.1422                21.2819                 1.7250

                     94                     95                     96
                      A                      A                      A
 Frequencies --   1661.4191              3051.8969              3051.9686
 Red. masses --      5.5532                 1.0548                 1.0565
 Frc consts  --      9.0314                 5.7883                 5.7978
 IR Inten    --     10.2900                72.7692                16.7361

                     97                     98                     99
                      A                      A                      A
 Frequencies --   3056.8586              3064.1185              3100.5660
 Red. masses --      1.0421                 1.0644                 1.1019
 Frc consts  --      5.7374                 5.8880                 6.2416
 IR Inten    --     77.8866                74.9500                13.7694

                    100                    101                    102
                      A                      A                      A
 Frequencies --   3122.4051              3125.4577              3139.1223
 Red. masses --      1.0580                 1.0962                 1.0942
 Frc consts  --      6.0776                 6.3091                 6.3525
 IR Inten    --      4.2990                20.8367                39.4807

                    103                    104                    105
                      A                      A                      A
 Frequencies --   3141.9293              3145.7046              3170.2952
 Red. masses --      1.0929                 1.0580                 1.1054
 Frc consts  --      6.3565                 6.1685                 6.5461
 IR Inten    --     16.5312                 9.3335                22.1657

                    106                    107                    108
                      A                      A                      A
 Frequencies --   3193.3552              3193.4859              3197.8019
 Red. masses --      1.1107                 1.0859                 1.0879
 Frc consts  --      6.6733                 6.5247                 6.5543
 IR Inten    --      2.7718                 7.2539                 6.7967

                    109                    110                    111
                      A                      A                      A
 Frequencies --   3203.6275              3208.2962              3213.9671
 Red. masses --      1.0909                 1.1008                 1.0939
 Frc consts  --      6.5968                 6.6756                 6.6574
 IR Inten    --     15.6363                 6.9920                60.3115

                    112                    113                    114
                      A                      A                      A
 Frequencies --   3218.3901              3222.8965              3518.0660
 Red. masses --      1.1093                 1.0978                 1.0765
 Frc consts  --      6.7701                 6.7182                 7.8500
 IR Inten    --      9.2498                36.7006               129.5675

 - Thermochemistry -
 -------------------
 Temperature   298.150 Kelvin.  Pressure   1.00000 Atm.
 Atom     1 has atomic number  8 and mass  15.99491

 Molecular mass:   316.09154 amu.
 Principal axes and moments of inertia in atomic units:
                           1         2         3
     Eigenvalues --  4923.638437855.86380**********
           X            0.99927   0.03689  -0.00979
           Y           -0.03663   0.99901   0.02509
           Z            0.01071  -0.02471   0.99964
 This molecule is an asymmetric top.
 Rotational symmetry number  1.
 Warning -- assumption of classical behavior for rotation
           may cause significant error
 Rotational temperatures (Kelvin)      0.01759     0.01103     0.00802
 Rotational constants (GHZ):           0.36655     0.22973     0.16707
    1 imaginary frequencies ignored.
 Zero-point vibrational energy     858821.8 (Joules/Mol)
                                  205.26334 (Kcal/Mol)
 Warning -- explicit consideration of  32 degrees of freedom as
           vibrations may cause significant error
 Vibrational temperatures:     28.25    47.78    63.22    84.04    92.16
          (Kelvin)            122.79   195.84   202.90   240.25   276.32
                              283.22   298.37   337.97   342.57   359.32
                              415.33   448.17   467.09   496.36   512.69
                              521.51   547.70   604.11   623.37   650.35
                              674.58   714.94   723.09   772.55   791.97
                              820.71   868.49   913.03   943.63   972.76
                             1015.76  1034.26  1090.45  1123.39  1141.04
                             1152.42  1217.95  1252.77  1299.28  1324.73
                             1331.63  1346.41  1370.52  1418.55  1436.00
                             1449.99  1463.81  1480.95  1521.52  1529.98
                             1537.00  1550.16  1565.30  1587.55  1610.68
                             1623.03  1636.35  1695.12  1708.31  1731.26
                             1738.27  1750.48  1752.95  1764.00  1795.45
                             1822.36  1828.79  1838.48  1868.76  1940.99
                             1964.92  1983.60  2002.67  2078.45  2091.69
                             2102.39  2117.37  2128.35  2145.53  2158.27
                             2160.04  2175.42  2180.82  2185.57  2202.53
                             2221.29  2359.20  2390.41  4391.00  4391.10
                             4398.14  4408.58  4461.02  4492.44  4496.84
                             4516.50  4520.54  4525.97  4561.35  4594.53
                             4594.71  4600.92  4609.31  4616.02  4624.18
                             4630.55  4637.03  5061.71

 Zero-point correction=                           0.327108 (Hartree/Particle)
 Thermal correction to Energy=                    0.346960
 Thermal correction to Enthalpy=                  0.347904
 Thermal correction to Gibbs Free Energy=         0.277609
 Sum of electronic and zero-point Energies=          -1638.525357
 Sum of electronic and thermal Energies=             -1638.505505
 Sum of electronic and thermal Enthalpies=           -1638.504561
 Sum of electronic and thermal Free Energies=        -1638.574856

                     E (Thermal)             CV                S
                      KCal/Mol        Cal/Mol-Kelvin    Cal/Mol-Kelvin
 Total                  217.721             76.712            147.948
 Electronic               0.000              0.000              0.000
 Translational            0.889              2.981             43.148
 Rotational               0.889              2.981             34.390
 Vibrational            215.943             70.751             70.410
 Vibration     1          0.593              1.986              6.671
 Vibration     2          0.594              1.983              5.628
 Vibration     3          0.595              1.980              5.073
 Vibration     4          0.596              1.974              4.510
 Vibration     5          0.597              1.971              4.328
 Vibration     6          0.601              1.959              3.764
 Vibration     7          0.614              1.917              2.858
 Vibration     8          0.615              1.912              2.790
 Vibration     9          0.624              1.883              2.469
 Vibration    10          0.634              1.851              2.208
 Vibration    11          0.636              1.844              2.162
 Vibration    12          0.641              1.829              2.067
 Vibration    13          0.655              1.787              1.841
 Vibration    14          0.656              1.782              1.817
 Vibration    15          0.663              1.763              1.732
 Vibration    16          0.685              1.695              1.482
 Vibration    17          0.700              1.652              1.354
 Vibration    18          0.709              1.626              1.287
 Vibration    19          0.723              1.585              1.189
 Vibration    20          0.732              1.562              1.138
 Vibration    21          0.736              1.550              1.111
 Vibration    22          0.750              1.511              1.037
 Vibration    23          0.783              1.427              0.892
 Vibration    24          0.794              1.398              0.848
 Vibration    25          0.811              1.356              0.790
 Vibration    26          0.826              1.319              0.741
 Vibration    27          0.852              1.257              0.666
 Vibration    28          0.858              1.244              0.652
 Vibration    29          0.892              1.168              0.572
 Vibration    30          0.906              1.139              0.543
 Vibration    31          0.927              1.095              0.503
 Vibration    32          0.962              1.024              0.443

                           ! Non-Optimized Parameters !
 Normal termination of Gaussian 16 at Mon Sep 21 07:18:14 2020.

 ----------------------------------------------------------------------
 #p b3lyp/6-31G(d) scrf=(iefpcm,read,solvent=water) geom=allcheck guess
 =read
 ----------------------------------------------------------------------

 Structure from the checkpoint file:  "SM37_m0.n.10.pdb.xyz.mst.n.w.chk"
 --------------------
 SM37_m0.n.10.pdb.xyz
 --------------------
 Charge =  0 Multiplicity = 1

 SCF Done:  E(RB3LYP) =  -1638.85243797     A.U. after    6 cycles
 Normal termination of Gaussian 16 at Mon Sep 21 07:19:04 2020.

 -----------------------------
 #p B3LYP/6-31G* geom=allcheck
 -----------------------------

 Structure from the checkpoint file:  "SM37_m0.n.10.pdb.xyz.mst.n.w.chk"
 --------------------
 SM37_m0.n.10.pdb.xyz
 --------------------
 Charge =  0 Multiplicity = 1

 SCF Done:  E(RB3LYP) =  -1638.82686463     A.U. after   15 cycles

 The electronic state is 1-A.
 Alpha  occ. eigenvalues --  -89.13604 -88.98636 -19.14919 -19.14674 -19.11648
 Alpha  occ. eigenvalues --  -14.38562 -14.38294 -10.27070 -10.23949 -10.22941
 Alpha  occ. eigenvalues --  -10.22599 -10.21275 -10.20108 -10.19389 -10.19295
 Alpha  occ. eigenvalues --  -10.18856 -10.18681 -10.18614 -10.18525 -10.17868
 Alpha  occ. eigenvalues --   -8.15803  -8.03451  -6.12288  -6.12239  -6.12192
 Alpha  occ. eigenvalues --   -5.99860  -5.99691  -5.99219  -1.12617  -1.00563
 Alpha  occ. eigenvalues --   -1.00253  -0.95264  -0.94456  -0.85475  -0.84505
 Alpha  occ. eigenvalues --   -0.78946  -0.74018  -0.73897  -0.73852  -0.71872
 Alpha  occ. eigenvalues --   -0.70835  -0.67819  -0.63146  -0.61056  -0.60000
 Alpha  occ. eigenvalues --   -0.57940  -0.56611  -0.55669  -0.52879  -0.51045
 Alpha  occ. eigenvalues --   -0.50735  -0.48917  -0.48418  -0.47482  -0.46977
 Alpha  occ. eigenvalues --   -0.45080  -0.44724  -0.44409  -0.43539  -0.43274
 Alpha  occ. eigenvalues --   -0.42195  -0.42009  -0.41621  -0.41425  -0.40855
 Alpha  occ. eigenvalues --   -0.39923  -0.39756  -0.38747  -0.37068  -0.36040
 Alpha  occ. eigenvalues --   -0.35131  -0.34795  -0.34481  -0.33544  -0.32968
 Alpha  occ. eigenvalues --   -0.32495  -0.31978  -0.30666  -0.29847  -0.26540
 Alpha  occ. eigenvalues --   -0.25946  -0.24599  -0.23984  -0.22924
 Alpha virt. eigenvalues --   -0.00242   0.00224   0.00332   0.02141   0.03286
 Alpha virt. eigenvalues --    0.05258   0.06223   0.07255   0.07980   0.09339
 Alpha virt. eigenvalues --    0.10148   0.10585   0.11424   0.11572   0.12326

 Mulliken charges:
               1
     1  O   -0.527787
     2  S    1.308901
     3  N   -0.707120
     4  C    0.223450
     5  C   -0.507401
     6  S    0.769850
     7  O   -0.622208
     8  C   -0.514841
     9  C   -0.289443
    10  C   -0.386461
    11  C    0.156201
    12  C   -0.216854
    13  C   -0.130410
    14  C   -0.130662
    15  C   -0.129277
    16  C   -0.176656
    17  N   -0.520480
    18  C   -0.313897
    19  C   -0.319271
    20  O   -0.550639
    21  H    0.351338
    22  H    0.205616
    23  H    0.194255
    24  H    0.224637
    25  H    0.237799
    26  H    0.191145
    27  H    0.120091
    28  H    0.152394
    29  H    0.181714
    30  H    0.183146
    31  H    0.133488
    32  H    0.127905
    33  H    0.124567
    34  H    0.113416
    35  H    0.157290
    36  H    0.169294
    37  H    0.180180
    38  H    0.211224
    39  H    0.162919
    40  H    0.162588
 Sum of Mulliken charges =  -0.00000

 Dipole moment (field-independent basis, Debye):
    X=             -1.3982    Y=             -2.9815    Z=              3.8944  Tot=              5.1001
 Quadrupole moment (field-independent basis, Debye-Ang):
   XX=           -152.8287   YY=           -125.8292   ZZ=           -129.6642
   XY=             -2.5856   XZ=            -13.5783   YZ=              3.5441

 Normal termination of Gaussian 16 at Mon Sep 21 07:20:16 2020.
 Gaussian 16:  ES64L-G16RevB.01 20-Dec-2017

 ----------------------------------------------------------------------
 #p mp2/aug-cc-pVDZ scf=(MaxCycle=2000,NoVarAcc,NoIncFock) maxdisk=120G
 B geom=allcheck
 ----------------------------------------------------------------------

 Structure from the checkpoint file:  "SM37_m0.n.10.pdb.xyz.mst.n.w.chk"
 --------------------
 SM37_m0.n.10.pdb.xyz
 --------------------
 Charge =  0 Multiplicity = 1

                         Standard orientation:
 ---------------------------------------------------------------------
 Center     Atomic      Atomic             Coordinates (Angstroms)
 Number     Number       Type             X           Y           Z
 ---------------------------------------------------------------------
      1          8           0       -4.145860    0.258229   -0.380441
      2         16           0       -2.719707   -0.068669   -0.536093
      3          7           0       -1.927041    1.113121    0.318838
      4          6           0       -0.454737    1.208405    0.485874
      5          6           0       -0.138805    2.659615    0.937038
      6         16           0        0.943462    3.018277   -0.538730
      7          8           0        2.413499    2.955853   -0.124506
      8          6           0        0.279442    1.307959   -0.877986
      9          6           0        0.084301    0.147886    1.465662
     10          6           0        1.619160    0.129480    1.668466
     11          6           0        2.386611   -0.797235    0.743864
     12          6           0        3.350241   -0.292804   -0.140375
     13          6           0        4.082267   -1.148638   -0.968101
     14          6           0        3.861959   -2.525953   -0.924006
     15          6           0        2.904033   -3.041252   -0.046454
     16          6           0        2.175980   -2.183907    0.779038
     17          7           0       -2.352102   -1.551418    0.181023
     18          6           0       -3.026013   -1.792542    1.464820
     19          6           0       -2.404306   -2.704033   -0.731326
     20          8           0       -2.141931   -0.126672   -1.882099
     21          1           0       -2.448901    1.360881    1.160968
     22          1           0        0.435421    2.750750    1.859787
     23          1           0       -1.000551    3.327508    0.955280
     24          1           0        1.092659    0.599287   -1.028639
     25          1           0       -0.382131    1.318529   -1.741553
     26          1           0       -0.266356   -0.832772    1.132927
     27          1           0       -0.400153    0.345310    2.428860
     28          1           0        1.807279   -0.182801    2.701434
     29          1           0        2.028176    1.140415    1.572151
     30          1           0        3.504844    0.781417   -0.182346
     31          1           0        4.822774   -0.737814   -1.646688
     32          1           0        4.429738   -3.192530   -1.565826
     33          1           0        2.727359   -4.111135   -0.001946
     34          1           0        1.440694   -2.596678    1.463322
     35          1           0       -2.883976   -0.943276    2.134813
     36          1           0       -2.555572   -2.667326    1.916560
     37          1           0       -4.098723   -1.981997    1.342075
     38          1           0       -1.840997   -2.477673   -1.633421
     39          1           0       -3.430824   -2.984772   -0.997764
     40          1           0       -1.933292   -3.542138   -0.214577
 ---------------------------------------------------------------------

 SCF Done:  E(RHF) =  -1632.39441143     A.U. after   17 cycles
