 Gaussian 16, Revision B.01,

 ----------------------------------------------------------------------
 #p b3lyp/6-31G(d) opt freq NoSymm scf=(MaxCycle=2000,NoVarAcc,NoIncFoc
 k) scrf=(iefpcm,read,solvent=water)
 ----------------------------------------------------------------------

 -------------------
 SM37_m0.n.9.pdb.xyz
 -------------------
 Symbolic Z-matrix:
 Charge =  0 Multiplicity = 1

 SCF Done:  E(RB3LYP) =  -1638.85487837     A.U. after   13 cycles
 SCF Done:  E(RB3LYP) =  -1638.85450157     A.U. after   11 cycles
 SCF Done:  E(RB3LYP) =  -1638.85507427     A.U. after   11 cycles
 SCF Done:  E(RB3LYP) =  -1638.85412747     A.U. after   11 cycles
 SCF Done:  E(RB3LYP) =  -1638.85501174     A.U. after   10 cycles
 SCF Done:  E(RB3LYP) =  -1638.85509885     A.U. after   10 cycles
 SCF Done:  E(RB3LYP) =  -1638.85497982     A.U. after    9 cycles
 SCF Done:  E(RB3LYP) =  -1638.85485037     A.U. after   10 cycles
 SCF Done:  E(RB3LYP) =  -1638.85489320     A.U. after    9 cycles
 SCF Done:  E(RB3LYP) =  -1638.85494518     A.U. after    9 cycles
 SCF Done:  E(RB3LYP) =  -1638.85489415     A.U. after    9 cycles
 SCF Done:  E(RB3LYP) =  -1638.85486148     A.U. after    8 cycles
 SCF Done:  E(RB3LYP) =  -1638.85486205     A.U. after    8 cycles
 SCF Done:  E(RB3LYP) =  -1638.85487753     A.U. after    8 cycles
 SCF Done:  E(RB3LYP) =  -1638.85487382     A.U. after    6 cycles
 SCF Done:  E(RB3LYP) =  -1638.85487587     A.U. after    6 cycles
 Optimization completed.
    -- Stationary point found.
 Normal termination of Gaussian 16 at Mon Sep 21 06:53:49 2020.

 --------------------------------------------------------------------
 #P Geom=AllCheck Guess=TCheck SCRF=Check GenChk RB3LYP/6-31G(d) Freq
 --------------------------------------------------------------------

 Structure from the checkpoint file:  "SM37_m0.n.9.pdb.xyz.mst.n.w.chk"
 -------------------
 SM37_m0.n.9.pdb.xyz
 -------------------
 Charge =  0 Multiplicity = 1

 SCF Done:  E(RB3LYP) =  -1638.85487587     A.U. after    1 cycles

  Exact polarizability: 274.919   0.092 261.730 -38.279  -8.777 208.659
 Approx polarizability: 285.440   6.933 311.716 -41.006  -7.704 241.460

                      1                      2                      3
                      A                      A                      A
 Frequencies --     28.2468                35.5226                40.4205
 Red. masses --      4.4185                 4.3809                 5.2552
 Frc consts  --      0.0021                 0.0033                 0.0051
 IR Inten    --      0.7467                 0.9633                 2.3226

                      4                      5                      6
                      A                      A                      A
 Frequencies --     53.1081                68.2343                74.4173
 Red. masses --      5.2044                 4.2787                 3.6710
 Frc consts  --      0.0086                 0.0117                 0.0120
 IR Inten    --      4.0904                 0.2801                 5.0188

                      7                      8                      9
                      A                      A                      A
 Frequencies --     78.7311               120.0647               156.2175
 Red. masses --      4.7246                 5.1012                 3.1791
 Frc consts  --      0.0173                 0.0433                 0.0457
 IR Inten    --      9.5275                 1.2067                 2.5445

                     10                     11                     12
                      A                      A                      A
 Frequencies --    181.6656               193.6294               208.3849
 Red. masses --      1.9475                 3.0058                 2.4772
 Frc consts  --      0.0379                 0.0664                 0.0634
 IR Inten    --     14.1280                 9.0896                12.2080

                     13                     14                     15
                      A                      A                      A
 Frequencies --    217.2512               225.5905               241.4656
 Red. masses --      4.5412                 2.3861                 1.6705
 Frc consts  --      0.1263                 0.0715                 0.0574
 IR Inten    --     11.3367                11.4148                 1.8172

                     16                     17                     18
                      A                      A                      A
 Frequencies --    257.8573               283.7317               311.8481
 Red. masses --      5.4409                 3.4194                 2.2336
 Frc consts  --      0.2131                 0.1622                 0.1280
 IR Inten    --      9.3086                 1.6493                 3.1152

                     19                     20                     21
                      A                      A                      A
 Frequencies --    335.3560               347.4020               360.8686
 Red. masses --      2.3059                 3.0580                 3.2023
 Frc consts  --      0.1528                 0.2174                 0.2457
 IR Inten    --      3.5017                13.8771                 0.8215

                     22                     23                     24
                      A                      A                      A
 Frequencies --    366.2048               385.4840               421.3017
 Red. masses --      3.2075                 2.6080                 3.0117
 Frc consts  --      0.2534                 0.2283                 0.3150
 IR Inten    --     13.7560                 0.2353                 0.1498

                     25                     26                     27
                      A                      A                      A
 Frequencies --    449.4505               455.8151               461.3641
 Red. masses --      3.2542                 5.0321                 4.3239
 Frc consts  --      0.3873                 0.6160                 0.5423
 IR Inten    --     16.9936                 3.9381                19.2342

                     28                     29                     30
                      A                      A                      A
 Frequencies --    493.9483               499.8605               546.9865
 Red. masses --      3.8889                 3.1430                 3.3422
 Frc consts  --      0.5590                 0.4627                 0.5892
 IR Inten    --     43.0136                21.8620                99.4533

                     31                     32                     33
                      A                      A                      A
 Frequencies --    557.6785               575.1736               611.4943
 Red. masses --      4.7264                 3.4749                 2.4637
 Frc consts  --      0.8661                 0.6773                 0.5428
 IR Inten    --     67.9925                 2.5229               125.1895

                     34                     35                     36
                      A                      A                      A
 Frequencies --    634.5385               653.3788               665.6241
 Red. masses --      6.3320                 4.5979                 5.9609
 Frc consts  --      1.5021                 1.1565                 1.5560
 IR Inten    --      0.2489                24.1025               121.9445

                     37                     38                     39
                      A                      A                      A
 Frequencies --    708.9640               720.6362               759.0472
 Red. masses --      3.3295                 2.2057                 1.8797
 Frc consts  --      0.9860                 0.6749                 0.6381
 IR Inten    --     21.9461                37.4648                60.4328

                     40                     41                     42
                      A                      A                      A
 Frequencies --    782.1558               795.6848               806.4382
 Red. masses --      2.3334                 2.7479                 2.0602
 Frc consts  --      0.8410                 1.0250                 0.7894
 IR Inten    --     16.4761                 8.6771                24.0267

                     43                     44                     45
                      A                      A                      A
 Frequencies --    847.7900               874.1155               898.9012
 Red. masses --      2.7688                 1.2558                 3.0103
 Frc consts  --      1.1725                 0.5654                 1.4331
 IR Inten    --     67.8773                 1.1069               158.3074

                     46                     47                     48
                      A                      A                      A
 Frequencies --    921.9171               925.9251               944.6275
 Red. masses --      1.6981                 1.9848                 3.2051
 Frc consts  --      0.8503                 1.0026                 1.6851
 IR Inten    --     48.8180                27.5570               235.3259

                     49                     50                     51
                      A                      A                      A
 Frequencies --    953.7162               989.8475               990.8411
 Red. masses --      1.6775                 1.6800                 1.8087
 Frc consts  --      0.8990                 0.9698                 1.0462
 IR Inten    --     12.7130                15.8111                22.1631

                     52                     53                     54
                      A                      A                      A
 Frequencies --   1010.3311              1017.4153              1031.3983
 Red. masses --      1.4857                 3.4617                 3.9396
 Frc consts  --      0.8935                 2.1112                 2.4692
 IR Inten    --      4.7708                 1.2069                75.8469

                     55                     56                     57
                      A                      A                      A
 Frequencies --   1052.7930              1060.4214              1070.4628
 Red. masses --      3.0687                 2.2201                 1.5919
 Frc consts  --      2.0040                 1.4709                 1.0748
 IR Inten    --    199.4745                27.1298                22.6334

                     58                     59                     60
                      A                      A                      A
 Frequencies --   1074.6584              1095.7202              1099.3487
 Red. masses --      1.1149                 7.7259                 1.8723
 Frc consts  --      0.7586                 5.4651                 1.3332
 IR Inten    --     21.9988               283.1994                 7.2675

                     61                     62                     63
                      A                      A                      A
 Frequencies --   1110.0998              1133.1237              1141.9932
 Red. masses --      2.4392                 1.2303                 2.0184
 Frc consts  --      1.7710                 0.9307                 1.5509
 IR Inten    --     38.4955                 3.3937                 3.2271

                     64                     65                     66
                      A                      A                      A
 Frequencies --   1181.0272              1184.9714              1201.6718
 Red. masses --      1.3858                 1.0940                 1.2915
 Frc consts  --      1.1389                 0.9051                 1.0988
 IR Inten    --      4.7543                 0.0279                 2.2600

                     67                     68                     69
                      A                      A                      A
 Frequencies --   1208.7211              1218.6384              1222.2088
 Red. masses --      1.1591                 2.1834                 1.6061
 Frc consts  --      0.9978                 1.9104                 1.4136
 IR Inten    --      0.5228                16.9470                35.4414

                     70                     71                     72
                      A                      A                      A
 Frequencies --   1229.3372              1240.6762              1261.1595
 Red. masses --      2.5068                 1.9114                 2.2379
 Frc consts  --      2.2321                 1.7335                 2.0972
 IR Inten    --      1.1150                81.4216                54.0505

                     73                     74                     75
                      A                      A                      A
 Frequencies --   1279.2978              1286.8540              1290.6977
 Red. masses --      2.3622                 2.4672                 1.5193
 Frc consts  --      2.2778                 2.4072                 1.4912
 IR Inten    --    177.5527               155.7410                39.1881

                     76                     77                     78
                      A                      A                      A
 Frequencies --   1350.7127              1366.9396              1376.0746
 Red. masses --      3.0045                 1.5951                 1.4078
 Frc consts  --      3.2296                 1.7560                 1.5707
 IR Inten    --     13.4379                 0.5889                 9.0609

                     79                     80                     81
                      A                      A                      A
 Frequencies --   1396.1804              1452.5251              1453.9404
 Red. masses --      1.4195                 1.1080                 1.1289
 Frc consts  --      1.6303                 1.3773                 1.4060
 IR Inten    --     14.7134                11.5699                 3.1586

                     82                     83                     84
                      A                      A                      A
 Frequencies --   1472.4684              1477.3487              1487.1725
 Red. masses --      1.1563                 1.1682                 1.1506
 Frc consts  --      1.4772                 1.5023                 1.4994
 IR Inten    --      2.6836                79.3539                14.6460

                     85                     86                     87
                      A                      A                      A
 Frequencies --   1498.9678              1501.9502              1504.3632
 Red. masses --      1.6292                 1.1087                 1.1210
 Frc consts  --      2.1567                 1.4736                 1.4948
 IR Inten    --      5.0452                16.9535                 7.5990

                     88                     89                     90
                      A                      A                      A
 Frequencies --   1505.4619              1518.1441              1521.3786
 Red. masses --      1.1572                 1.0501                 1.0542
 Frc consts  --      1.5452                 1.4259                 1.4376
 IR Inten    --      8.3393                15.9600                15.5383

                     91                     92                     93
                      A                      A                      A
 Frequencies --   1530.9302              1543.8835              1639.2605
 Red. masses --      1.0485                 2.1820                 5.4877
 Frc consts  --      1.4479                 3.0643                 8.6883
 IR Inten    --     14.4808                22.7491                 1.7186

                     94                     95                     96
                      A                      A                      A
 Frequencies --   1660.9930              3052.2424              3060.1270
 Red. masses --      5.5154                 1.0467                 1.0624
 Frc consts  --      8.9652                 5.7452                 5.8615
 IR Inten    --     10.8029                72.9533                34.3268

                     97                     98                     99
                      A                      A                      A
 Frequencies --   3062.3096              3064.5675              3109.6814
 Red. masses --      1.0429                 1.0639                 1.1018
 Frc consts  --      5.7624                 5.8868                 6.2777
 IR Inten    --     78.3452                38.9299                41.6760

                    100                    101                    102
                      A                      A                      A
 Frequencies --   3110.2744              3124.4919              3143.0401
 Red. masses --      1.1008                 1.0581                 1.0573
 Frc consts  --      6.2741                 6.0862                 6.1542
 IR Inten    --     18.6930                13.3770                 5.8253

                    103                    104                    105
                      A                      A                      A
 Frequencies --   3144.1119              3146.5340              3191.7457
 Red. masses --      1.0910                 1.0954                 1.1034
 Frc consts  --      6.3542                 6.3899                 6.6228
 IR Inten    --     42.9684                 8.7675                10.9691

                    106                    107                    108
                      A                      A                      A
 Frequencies --   3193.2645              3194.7165              3197.9197
 Red. masses --      1.0859                 1.1098                 1.0879
 Frc consts  --      6.5242                 6.6738                 6.5553
 IR Inten    --      9.2369                 8.5258                 5.4504

                    109                    110                    111
                      A                      A                      A
 Frequencies --   3201.5923              3203.8147              3213.9582
 Red. masses --      1.1025                 1.0907                 1.0938
 Frc consts  --      6.6580                 6.5964                 6.6570
 IR Inten    --      6.9325                14.2108                57.7189

                    112                    113                    114
                      A                      A                      A
 Frequencies --   3217.1711              3223.3123              3508.6717
 Red. masses --      1.1102                 1.0977                 1.0757
 Frc consts  --      6.7700                 6.7196                 7.8023
 IR Inten    --      7.1434                39.2423               129.7239

 - Thermochemistry -
 -------------------
 Temperature   298.150 Kelvin.  Pressure   1.00000 Atm.
 Atom     1 has atomic number  8 and mass  15.99491

 Molecular mass:   316.09154 amu.
 Principal axes and moments of inertia in atomic units:
                           1         2         3
     Eigenvalues --  3038.51110********************
           X            0.99986  -0.00586  -0.01582
           Y            0.00571   0.99994  -0.00946
           Z            0.01588   0.00936   0.99983
 This molecule is an asymmetric top.
 Rotational symmetry number  1.
 Warning -- assumption of classical behavior for rotation
           may cause significant error
 Rotational temperatures (Kelvin)      0.02851     0.00747     0.00681
 Rotational constants (GHZ):           0.59396     0.15562     0.14191
 Zero-point vibrational energy     860379.3 (Joules/Mol)
                                  205.63560 (Kcal/Mol)
 Warning -- explicit consideration of  33 degrees of freedom as
           vibrations may cause significant error
 Vibrational temperatures:     40.64    51.11    58.16    76.41    98.17
          (Kelvin)            107.07   113.28   172.75   224.76   261.38
                              278.59   299.82   312.58   324.57   347.42
                              371.00   408.23   448.68   482.50   499.83
                              519.21   526.89   554.63   606.16   646.66
                              655.82   663.80   710.68   719.19   786.99
                              802.37   827.55   879.80   912.96   940.07
                              957.68  1020.04  1036.83  1092.10  1125.35
                             1144.81  1160.28  1219.78  1257.66  1293.32
                             1326.43  1332.20  1359.11  1372.18  1424.17
                             1425.60  1453.64  1463.83  1483.95  1514.73
                             1525.71  1540.16  1546.19  1576.50  1581.72
                             1597.19  1630.31  1643.07  1699.23  1704.91
                             1728.94  1739.08  1753.35  1758.49  1768.74
                             1785.06  1814.53  1840.62  1851.50  1857.03
                             1943.37  1966.72  1979.86  2008.79  2089.86
                             2091.90  2118.55  2125.58  2139.71  2156.68
                             2160.97  2164.44  2166.02  2184.27  2188.92
                             2202.67  2221.30  2358.53  2389.80  4391.50
                             4402.84  4405.98  4409.23  4474.14  4474.99
                             4495.45  4522.13  4523.68  4527.16  4592.21
                             4594.40  4596.48  4601.09  4606.38  4609.57
                             4624.17  4628.79  4637.63  5048.20

 Zero-point correction=                           0.327701 (Hartree/Particle)
 Thermal correction to Energy=                    0.348226
 Thermal correction to Enthalpy=                  0.349170
 Thermal correction to Gibbs Free Energy=         0.277391
 Sum of electronic and zero-point Energies=          -1638.527175
 Sum of electronic and thermal Energies=             -1638.506650
 Sum of electronic and thermal Enthalpies=           -1638.505706
 Sum of electronic and thermal Free Energies=        -1638.577485

                     E (Thermal)             CV                S
                      KCal/Mol        Cal/Mol-Kelvin    Cal/Mol-Kelvin
 Total                  218.515             78.466            151.072
 Electronic               0.000              0.000              0.000
 Translational            0.889              2.981             43.148
 Rotational               0.889              2.981             34.460
 Vibrational            216.738             72.504             73.464
 Vibration     1          0.593              1.984              5.949
 Vibration     2          0.594              1.982              5.494
 Vibration     3          0.594              1.981              5.238
 Vibration     4          0.596              1.976              4.698
 Vibration     5          0.598              1.969              4.204
 Vibration     6          0.599              1.966              4.033
 Vibration     7          0.600              1.963              3.922
 Vibration     8          0.609              1.933              3.099
 Vibration     9          0.620              1.896              2.595
 Vibration    10          0.630              1.865              2.311
 Vibration    11          0.635              1.849              2.193
 Vibration    12          0.642              1.828              2.058
 Vibration    13          0.646              1.815              1.982
 Vibration    14          0.650              1.802              1.914
 Vibration    15          0.658              1.777              1.792
 Vibration    16          0.667              1.749              1.676
 Vibration    17          0.682              1.704              1.511
 Vibration    18          0.700              1.651              1.353
 Vibration    19          0.716              1.605              1.234
 Vibration    20          0.725              1.581              1.178
 Vibration    21          0.735              1.553              1.118
 Vibration    22          0.739              1.542              1.096
 Vibration    23          0.754              1.501              1.018
 Vibration    24          0.784              1.424              0.888
 Vibration    25          0.808              1.362              0.797
 Vibration    26          0.814              1.348              0.778
 Vibration    27          0.819              1.336              0.762
 Vibration    28          0.850              1.263              0.673
 Vibration    29          0.855              1.250              0.658
 Vibration    30          0.902              1.146              0.550
 Vibration    31          0.913              1.123              0.528
 Vibration    32          0.932              1.085              0.494
 Vibration    33          0.971              1.008              0.430

 Optimization completed.
    -- Stationary point found.
 Normal termination of Gaussian 16 at Mon Sep 21 07:12:34 2020.

 ----------------------------------------------------------------------
 #p b3lyp/6-31G(d) scrf=(iefpcm,read,solvent=water) geom=allcheck guess
 =read
 ----------------------------------------------------------------------

 Structure from the checkpoint file:  "SM37_m0.n.9.pdb.xyz.mst.n.w.chk"
 -------------------
 SM37_m0.n.9.pdb.xyz
 -------------------
 Charge =  0 Multiplicity = 1

 SCF Done:  E(RB3LYP) =  -1638.85488700     A.U. after    5 cycles
 Normal termination of Gaussian 16 at Mon Sep 21 07:13:19 2020.

 -----------------------------
 #p B3LYP/6-31G* geom=allcheck
 -----------------------------

 Structure from the checkpoint file:  "SM37_m0.n.9.pdb.xyz.mst.n.w.chk"
 -------------------
 SM37_m0.n.9.pdb.xyz
 -------------------
 Charge =  0 Multiplicity = 1

 SCF Done:  E(RB3LYP) =  -1638.83257547     A.U. after   15 cycles

 The electronic state is 1-A.
 Alpha  occ. eigenvalues --  -89.13920 -88.98042 -19.15405 -19.15184 -19.11018
 Alpha  occ. eigenvalues --  -14.38700 -14.38477 -10.26928 -10.23431 -10.23363
 Alpha  occ. eigenvalues --  -10.21618 -10.20989 -10.20742 -10.19363 -10.19286
 Alpha  occ. eigenvalues --  -10.18796 -10.18639 -10.18567 -10.18478 -10.17798
 Alpha  occ. eigenvalues --   -8.16166  -8.02830  -6.12649  -6.12600  -6.12542
 Alpha  occ. eigenvalues --   -5.99240  -5.99069  -5.98597  -1.12991  -1.00895
 Alpha  occ. eigenvalues --   -0.99602  -0.95682  -0.94506  -0.85385  -0.84151
 Alpha  occ. eigenvalues --   -0.78928  -0.74523  -0.73872  -0.73800  -0.72131
 Alpha  occ. eigenvalues --   -0.70171  -0.67671  -0.62684  -0.60945  -0.59969
 Alpha  occ. eigenvalues --   -0.57713  -0.56461  -0.54578  -0.53203  -0.51299
 Alpha  occ. eigenvalues --   -0.50779  -0.49018  -0.48358  -0.47417  -0.46780
 Alpha  occ. eigenvalues --   -0.45156  -0.44917  -0.44239  -0.44044  -0.42877
 Alpha  occ. eigenvalues --   -0.42299  -0.41989  -0.41508  -0.41238  -0.40217
 Alpha  occ. eigenvalues --   -0.40112  -0.39380  -0.38530  -0.36797  -0.36238
 Alpha  occ. eigenvalues --   -0.35502  -0.34988  -0.34827  -0.33513  -0.32974
 Alpha  occ. eigenvalues --   -0.32789  -0.32593  -0.31013  -0.29201  -0.26584
 Alpha  occ. eigenvalues --   -0.25747  -0.24556  -0.23925  -0.22490
 Alpha virt. eigenvalues --   -0.00197   0.00271   0.01103   0.02671   0.04797
 Alpha virt. eigenvalues --    0.05825   0.06312   0.06574   0.08551   0.08952
 Alpha virt. eigenvalues --    0.09834   0.10432   0.10994   0.11981   0.12529

 Mulliken charges:
               1
     1  O   -0.560536
     2  S    1.338624
     3  N   -0.739035
     4  C    0.231229
     5  C   -0.512918
     6  S    0.775822
     7  O   -0.628528
     8  C   -0.512033
     9  C   -0.283819
    10  C   -0.389350
    11  C    0.153391
    12  C   -0.216787
    13  C   -0.131725
    14  C   -0.130891
    15  C   -0.129145
    16  C   -0.181483
    17  N   -0.529834
    18  C   -0.326779
    19  C   -0.320652
    20  O   -0.527350
    21  H    0.359583
    22  H    0.200778
    23  H    0.223089
    24  H    0.218019
    25  H    0.216529
    26  H    0.142347
    27  H    0.151893
    28  H    0.155167
    29  H    0.188088
    30  H    0.186250
    31  H    0.133586
    32  H    0.128112
    33  H    0.126902
    34  H    0.117203
    35  H    0.209034
    36  H    0.168242
    37  H    0.168119
    38  H    0.189249
    39  H    0.172909
    40  H    0.166703
 Sum of Mulliken charges =  -0.00000

 Dipole moment (field-independent basis, Debye):
    X=             -2.0379    Y=             -2.8128    Z=              3.0014  Tot=              4.5906
 Quadrupole moment (field-independent basis, Debye-Ang):
   XX=           -124.4867   YY=           -141.2367   ZZ=           -134.0740
   XY=            -11.2056   XZ=            -17.6400   YZ=             -4.9038

 Normal termination of Gaussian 16 at Mon Sep 21 07:14:33 2020.
 Gaussian 16:  ES64L-G16RevB.01 20-Dec-2017

 ----------------------------------------------------------------------
 #p mp2/aug-cc-pVDZ scf=(MaxCycle=2000,NoVarAcc,NoIncFock) maxdisk=120G
 B geom=allcheck
 ----------------------------------------------------------------------

 Structure from the checkpoint file:  "SM37_m0.n.9.pdb.xyz.mst.n.w.chk"
 -------------------
 SM37_m0.n.9.pdb.xyz
 -------------------
 Charge =  0 Multiplicity = 1

                         Standard orientation:
 ---------------------------------------------------------------------
 Center     Atomic      Atomic             Coordinates (Angstroms)
 Number     Number       Type             X           Y           Z
 ---------------------------------------------------------------------
      1          8           0       -2.574133    0.562825   -1.610369
      2         16           0       -2.754100   -0.648937   -0.794556
      3          7           0       -1.348371   -1.123171   -0.029037
      4          6           0       -0.262066   -0.173780    0.312429
      5          6           0       -0.776382    1.092306    1.046149
      6         16           0        0.002254    2.264234   -0.179833
      7          8           0        1.263045    2.877506    0.432947
      8          6           0        0.374206    0.577611   -0.894284
      9          6           0        0.734027   -0.990947    1.161071
     10          6           0        2.026108   -0.250082    1.587723
     11          6           0        3.220148   -0.427092    0.668080
     12          6           0        3.781956    0.672880    0.004870
     13          6           0        4.902959    0.519510   -0.815473
     14          6           0        5.481286   -0.739205   -0.985470
     15          6           0        4.930736   -1.843502   -0.329298
     16          6           0        3.812301   -1.687027    0.490544
     17          7           0       -3.683047   -0.175397    0.519098
     18          6           0       -4.812143    0.710613    0.187280
     19          6           0       -4.030251   -1.260471    1.447723
     20          8           0       -3.263025   -1.862984   -1.451489
     21          1           0       -1.006366   -1.965199   -0.493910
     22          1           0       -0.352076    1.255141    2.037818
     23          1           0       -1.860673    1.197522    1.077343
     24          1           0        1.446291    0.438841   -1.028509
     25          1           0       -0.158534    0.454479   -1.834953
     26          1           0        1.002770   -1.901596    0.613911
     27          1           0        0.188358   -1.311643    2.053593
     28          1           0        2.298036   -0.624001    2.580428
     29          1           0        1.828261    0.820032    1.703201
     30          1           0        3.317501    1.646865    0.130284
     31          1           0        5.322422    1.383320   -1.320657
     32          1           0        6.352300   -0.860490   -1.621477
     33          1           0        5.375964   -2.825653   -0.451634
     34          1           0        3.400618   -2.550638    1.004372
     35          1           0       -4.463259    1.513381   -0.459063
     36          1           0       -5.170467    1.134480    1.126588
     37          1           0       -5.636453    0.173988   -0.297971
     38          1           0       -3.133743   -1.832134    1.684294
     39          1           0       -4.797790   -1.927366    1.038288
     40          1           0       -4.408095   -0.797746    2.361084
 ---------------------------------------------------------------------

 SCF Done:  E(RHF) =  -1632.39947851     A.U. after   16 cycles
