 Gaussian 16, Revision B.01,

 ----------------------------------------------------------------------
 #p b3lyp/6-31G(d) opt freq NoSymm scf=(MaxCycle=2000,NoVarAcc,NoIncFoc
 k) scrf=(iefpcm,read,solvent=water)
 ----------------------------------------------------------------------

 --------------------
 SM37_m0.n.12.pdb.xyz
 --------------------
 Symbolic Z-matrix:
 Charge =  0 Multiplicity = 1

 SCF Done:  E(RB3LYP) =  -1638.85665027     A.U. after   13 cycles
 SCF Done:  E(RB3LYP) =  -1638.85645348     A.U. after   10 cycles
 SCF Done:  E(RB3LYP) =  -1638.85629636     A.U. after   10 cycles
 SCF Done:  E(RB3LYP) =  -1638.85666743     A.U. after   10 cycles
 SCF Done:  E(RB3LYP) =  -1638.85654479     A.U. after   10 cycles
 SCF Done:  E(RB3LYP) =  -1638.85654958     A.U. after    9 cycles
 SCF Done:  E(RB3LYP) =  -1638.85666116     A.U. after   10 cycles
 SCF Done:  E(RB3LYP) =  -1638.85666715     A.U. after    9 cycles
 SCF Done:  E(RB3LYP) =  -1638.85666743     A.U. after    7 cycles
 SCF Done:  E(RB3LYP) =  -1638.85640704     A.U. after   10 cycles
 SCF Done:  E(RB3LYP) =  -1638.85643060     A.U. after    8 cycles
 SCF Done:  E(RB3LYP) =  -1638.85643227     A.U. after    8 cycles
 SCF Done:  E(RB3LYP) =  -1638.85644224     A.U. after    9 cycles
 SCF Done:  E(RB3LYP) =  -1638.85643886     A.U. after    8 cycles
 SCF Done:  E(RB3LYP) =  -1638.85643746     A.U. after    8 cycles
 SCF Done:  E(RB3LYP) =  -1638.85643747     A.U. after    6 cycles
 Optimization completed.
    -- Stationary point found.
 Normal termination of Gaussian 16 at Mon Sep 21 07:19:17 2020.

 --------------------------------------------------------------------
 #P Geom=AllCheck Guess=TCheck SCRF=Check GenChk RB3LYP/6-31G(d) Freq
 --------------------------------------------------------------------

 Structure from the checkpoint file:  "SM37_m0.n.12.pdb.xyz.mst.n.w.chk"
 --------------------
 SM37_m0.n.12.pdb.xyz
 --------------------
 Charge =  0 Multiplicity = 1

 SCF Done:  E(RB3LYP) =  -1638.85643747     A.U. after    1 cycles

  Exact polarizability: 255.545 -19.859 265.265  38.291  20.036 222.893
 Approx polarizability: 287.562 -28.060 298.160  47.212  17.900 253.782

                      1                      2                      3
                      A                      A                      A
 Frequencies --     18.9919                24.6724                42.3478
 Red. masses --      5.1069                 5.2869                 4.2282
 Frc consts  --      0.0011                 0.0019                 0.0045
 IR Inten    --      0.5970                 2.1581                 0.4094

                      4                      5                      6
                      A                      A                      A
 Frequencies --     52.9488                72.5490                76.9635
 Red. masses --      6.2124                 3.4201                 4.2509
 Frc consts  --      0.0103                 0.0106                 0.0148
 IR Inten    --      1.3632                 0.6863                 6.4753

                      7                      8                      9
                      A                      A                      A
 Frequencies --     90.1296               125.3527               160.9066
 Red. masses --      4.1762                 4.7215                 3.4455
 Frc consts  --      0.0200                 0.0437                 0.0526
 IR Inten    --     12.0785                 0.0682                19.6213

                     10                     11                     12
                      A                      A                      A
 Frequencies --    173.4804               181.3263               193.0074
 Red. masses --      2.0897                 4.8993                 2.3922
 Frc consts  --      0.0371                 0.0949                 0.0525
 IR Inten    --      4.7959                 3.9017                 8.7664

                     13                     14                     15
                      A                      A                      A
 Frequencies --    212.2197               232.7220               255.4761
 Red. masses --      1.4732                 1.9302                 6.3140
 Frc consts  --      0.0391                 0.0616                 0.2428
 IR Inten    --      3.2532                 7.3823                 7.2804

                     16                     17                     18
                      A                      A                      A
 Frequencies --    256.4668               297.9964               320.7726
 Red. masses --      3.7994                 2.7421                 2.5383
 Frc consts  --      0.1472                 0.1435                 0.1539
 IR Inten    --      0.7777                 2.7592                 9.8170

                     19                     20                     21
                      A                      A                      A
 Frequencies --    330.1919               336.7614               352.8206
 Red. masses --      2.6504                 3.2389                 3.1426
 Frc consts  --      0.1703                 0.2164                 0.2305
 IR Inten    --      2.8902                 5.5588                 3.5700

                     22                     23                     24
                      A                      A                      A
 Frequencies --    360.9847               406.1598               419.1434
 Red. masses --      2.8645                 2.4656                 2.9694
 Frc consts  --      0.2199                 0.2396                 0.3074
 IR Inten    --     14.9744                 1.7389                 0.1111

                     25                     26                     27
                      A                      A                      A
 Frequencies --    424.1212               460.6432               475.7117
 Red. masses --      4.4115                 4.4208                 3.3564
 Frc consts  --      0.4675                 0.5527                 0.4475
 IR Inten    --      6.0992                13.9861                13.5940

                     28                     29                     30
                      A                      A                      A
 Frequencies --    496.3976               508.6432               546.7200
 Red. masses --      3.6448                 2.8195                 2.9534
 Frc consts  --      0.5292                 0.4298                 0.5201
 IR Inten    --     35.1771                41.9194               156.3848

                     31                     32                     33
                      A                      A                      A
 Frequencies --    560.3031               583.2937               606.6108
 Red. masses --      3.9006                 4.1483                 3.3244
 Frc consts  --      0.7215                 0.8316                 0.7208
 IR Inten    --     26.6913               106.8152                25.5506

                     34                     35                     36
                      A                      A                      A
 Frequencies --    634.6241               637.7082               666.7271
 Red. masses --      6.3626                 4.4131                 6.0141
 Frc consts  --      1.5098                 1.0574                 1.5751
 IR Inten    --      0.6682                16.4272               128.5294

                     37                     38                     39
                      A                      A                      A
 Frequencies --    715.2234               720.9385               746.2789
 Red. masses --      2.4980                 3.0079                 1.8652
 Frc consts  --      0.7529                 0.9211                 0.6120
 IR Inten    --     19.7675                 9.1886                60.5654

                     40                     41                     42
                      A                      A                      A
 Frequencies --    777.3960               782.9039               825.9767
 Red. masses --      2.3457                 2.6927                 1.7997
 Frc consts  --      0.8352                 0.9724                 0.7234
 IR Inten    --     18.6943                 8.1374                33.3110

                     43                     44                     45
                      A                      A                      A
 Frequencies --    862.0884               865.6652               906.0490
 Red. masses --      2.9669                 1.2516                 1.8583
 Frc consts  --      1.2992                 0.5526                 0.8988
 IR Inten    --     97.2881                 0.1297                58.1764

                     46                     47                     48
                      A                      A                      A
 Frequencies --    919.6264               941.6574               947.4452
 Red. masses --      2.0307                 3.1883                 1.9892
 Frc consts  --      1.0118                 1.6657                 1.0520
 IR Inten    --    100.9722               229.6927                14.5886

                     49                     50                     51
                      A                      A                      A
 Frequencies --    956.9439               977.2837               983.5801
 Red. masses --      2.1157                 1.3843                 2.0475
 Frc consts  --      1.1415                 0.7790                 1.1670
 IR Inten    --     31.9268                 7.6788               131.2679

                     52                     53                     54
                      A                      A                      A
 Frequencies --   1006.9640              1016.6374              1040.9078
 Red. masses --      1.2534                 6.1302                 3.3100
 Frc consts  --      0.7488                 3.7330                 2.1130
 IR Inten    --      1.4949                 1.1425                 2.8987

                     55                     56                     57
                      A                      A                      A
 Frequencies --   1054.7187              1057.9455              1065.1262
 Red. masses --      1.2497                 2.4072                 2.4474
 Frc consts  --      0.8191                 1.5874                 1.6359
 IR Inten    --      5.7538                49.0345               206.3379

                     58                     59                     60
                      A                      A                      A
 Frequencies --   1068.2894              1089.9604              1100.4250
 Red. masses --      1.6166                 2.7013                 3.8342
 Frc consts  --      1.0870                 1.8908                 2.7356
 IR Inten    --     21.9643               143.8311               162.4963

                     61                     62                     63
                      A                      A                      A
 Frequencies --   1117.7495              1129.6338              1135.9950
 Red. masses --      2.4026                 1.2327                 1.9344
 Frc consts  --      1.7686                 0.9268                 1.4708
 IR Inten    --     14.0568                 3.2245                 5.6847

                     64                     65                     66
                      A                      A                      A
 Frequencies --   1174.1963              1188.9842              1191.4857
 Red. masses --      1.3807                 1.0992                 1.3001
 Frc consts  --      1.1216                 0.9155                 1.0874
 IR Inten    --      5.3055                 0.1203                 0.4243

                     67                     68                     69
                      A                      A                      A
 Frequencies --   1207.8880              1211.4549              1218.0246
 Red. masses --      1.1449                 1.2824                 3.5347
 Frc consts  --      0.9842                 1.1089                 3.0897
 IR Inten    --      1.3012                35.6025                30.7537

                     70                     71                     72
                      A                      A                      A
 Frequencies --   1230.0401              1249.1414              1267.0183
 Red. masses --      2.4060                 2.6721                 1.8571
 Frc consts  --      2.1448                 2.4565                 1.7565
 IR Inten    --      0.8354                61.6651               200.0919

                     73                     74                     75
                      A                      A                      A
 Frequencies --   1278.9425              1290.2719              1310.1254
 Red. masses --      1.9076                 2.7810                 1.6053
 Frc consts  --      1.8384                 2.7278                 1.6235
 IR Inten    --     18.0795               116.7727               130.6543

                     76                     77                     78
                      A                      A                      A
 Frequencies --   1351.6398              1364.2646              1392.1554
 Red. masses --      2.5397                 1.7570                 1.4555
 Frc consts  --      2.7337                 1.9267                 1.6620
 IR Inten    --      4.7926                 0.2510                10.8181

                     79                     80                     81
                      A                      A                      A
 Frequencies --   1406.0535              1451.0410              1455.0135
 Red. masses --      1.4221                 1.1429                 1.1222
 Frc consts  --      1.6564                 1.4178                 1.3997
 IR Inten    --      8.9987                 1.4903                36.1027

                     82                     83                     84
                      A                      A                      A
 Frequencies --   1462.3031              1468.3102              1486.7761
 Red. masses --      1.1773                 1.1507                 1.1198
 Frc consts  --      1.4833                 1.4617                 1.4584
 IR Inten    --     43.8263                24.0595                 7.9123

                     85                     86                     87
                      A                      A                      A
 Frequencies --   1496.6346              1502.8725              1510.1968
 Red. masses --      1.7605                 1.0481                 1.1596
 Frc consts  --      2.3234                 1.3948                 1.5582
 IR Inten    --      5.2561                14.3866                16.0187

                     88                     89                     90
                      A                      A                      A
 Frequencies --   1512.0688              1514.0369              1517.9831
 Red. masses --      1.1217                 1.0899                 1.0674
 Frc consts  --      1.5111                 1.4720                 1.4491
 IR Inten    --      5.8790                22.7463                11.4008

                     91                     92                     93
                      A                      A                      A
 Frequencies --   1531.1148              1543.3502              1641.9957
 Red. masses --      1.0474                 2.2233                 5.4302
 Frc consts  --      1.4466                 3.1202                 8.6261
 IR Inten    --     15.8266                17.0548                 1.3673

                     94                     95                     96
                      A                      A                      A
 Frequencies --   1662.2012              3050.0502              3051.7211
 Red. masses --      5.6558                 1.0677                 1.0458
 Frc consts  --      9.2069                 5.8523                 5.7384
 IR Inten    --      9.7241                13.1909                61.8741

                     97                     98                     99
                      A                      A                      A
 Frequencies --   3055.2294              3062.0453              3109.3147
 Red. masses --      1.0440                 1.0667                 1.0967
 Frc consts  --      5.7416                 5.8926                 6.2469
 IR Inten    --     90.4959                87.4222                21.4008

                    100                    101                    102
                      A                      A                      A
 Frequencies --   3122.4264              3125.2270              3138.7935
 Red. masses --      1.0907                 1.0622                 1.0947
 Frc consts  --      6.2650                 6.1126                 6.3545
 IR Inten    --     20.6665                15.4101                36.7883

                    103                    104                    105
                      A                      A                      A
 Frequencies --   3141.3584              3142.7606              3187.8841
 Red. masses --      1.0920                 1.0589                 1.1021
 Frc consts  --      6.3493                 6.1621                 6.5989
 IR Inten    --     19.5486                 4.1989                10.7506

                    106                    107                    108
                      A                      A                      A
 Frequencies --   3191.8701              3196.3106              3202.5879
 Red. masses --      1.0857                 1.0870                 1.1106
 Frc consts  --      6.5170                 6.5427                 6.7116
 IR Inten    --     10.5511                 5.2900                 2.7891

                    109                    110                    111
                      A                      A                      A
 Frequencies --   3203.5221              3203.8208              3211.2287
 Red. masses --      1.1015                 1.0905                 1.0943
 Frc consts  --      6.6602                 6.5949                 6.6484
 IR Inten    --      6.5475                29.3344                77.0077

                    112                    113                    114
                      A                      A                      A
 Frequencies --   3217.2779              3222.6392              3488.9098
 Red. masses --      1.1093                 1.0976                 1.0761
 Frc consts  --      6.7652                 6.7161                 7.7173
 IR Inten    --      1.4119                28.6574               141.3310

 - Thermochemistry -
 -------------------
 Temperature   298.150 Kelvin.  Pressure   1.00000 Atm.
 Atom     1 has atomic number  8 and mass  15.99491

 Molecular mass:   316.09154 amu.
 Principal axes and moments of inertia in atomic units:
                           1         2         3
     Eigenvalues --  4486.220898321.72042**********
           X            0.99960  -0.02230  -0.01750
           Y            0.02335   0.99777   0.06253
           Z            0.01607  -0.06292   0.99789
 This molecule is an asymmetric top.
 Rotational symmetry number  1.
 Warning -- assumption of classical behavior for rotation
           may cause significant error
 Rotational temperatures (Kelvin)      0.01931     0.01041     0.00833
 Rotational constants (GHZ):           0.40229     0.21687     0.17364
 Zero-point vibrational energy     860245.8 (Joules/Mol)
                                  205.60368 (Kcal/Mol)
 Warning -- explicit consideration of  33 degrees of freedom as
           vibrations may cause significant error
 Vibrational temperatures:     27.33    35.50    60.93    76.18   104.38
          (Kelvin)            110.73   129.68   180.35   231.51   249.60
                              260.89   277.69   305.34   334.83   367.57
                              369.00   428.75   461.52   475.07   484.52
                              507.63   519.38   584.37   603.05   610.22
                              662.76   684.44   714.21   731.82   786.61
                              806.15   839.23   872.78   913.08   917.52
                              959.27  1029.05  1037.27  1073.73  1118.50
                             1126.42  1188.40  1240.35  1245.50  1303.60
                             1323.14  1354.83  1363.16  1376.83  1406.09
                             1415.15  1448.80  1462.71  1497.63  1517.50
                             1522.15  1532.48  1537.03  1568.21  1583.27
                             1608.19  1625.29  1634.44  1689.41  1710.68
                             1714.28  1737.88  1743.01  1752.47  1769.75
                             1797.24  1822.96  1840.11  1856.41  1884.98
                             1944.71  1962.87  2003.00  2023.00  2087.72
                             2093.44  2103.93  2112.57  2139.14  2153.32
                             2162.30  2172.84  2175.53  2178.36  2184.04
                             2202.93  2220.54  2362.47  2391.54  4388.34
                             4390.75  4395.79  4405.60  4473.61  4492.48
                             4496.50  4516.02  4519.71  4521.73  4586.65
                             4592.39  4598.78  4607.81  4609.15  4609.58
                             4620.24  4628.95  4636.66  5019.76

 Zero-point correction=                           0.327650 (Hartree/Particle)
 Thermal correction to Energy=                    0.348183
 Thermal correction to Enthalpy=                  0.349128
 Thermal correction to Gibbs Free Energy=         0.276933
 Sum of electronic and zero-point Energies=          -1638.528787
 Sum of electronic and thermal Energies=             -1638.508254
 Sum of electronic and thermal Enthalpies=           -1638.507310
 Sum of electronic and thermal Free Energies=        -1638.579504

                     E (Thermal)             CV                S
                      KCal/Mol        Cal/Mol-Kelvin    Cal/Mol-Kelvin
 Total                  218.488             78.445            151.947
 Electronic               0.000              0.000              0.000
 Translational            0.889              2.981             43.148
 Rotational               0.889              2.981             34.317
 Vibrational            216.711             72.484             74.481
 Vibration     1          0.593              1.986              6.737
 Vibration     2          0.593              1.985              6.217
 Vibration     3          0.595              1.980              5.146
 Vibration     4          0.596              1.976              4.704
 Vibration     5          0.599              1.967              4.083
 Vibration     6          0.599              1.965              3.967
 Vibration     7          0.602              1.956              3.657
 Vibration     8          0.610              1.928              3.016
 Vibration     9          0.622              1.890              2.539
 Vibration    10          0.627              1.875              2.397
 Vibration    11          0.630              1.865              2.315
 Vibration    12          0.635              1.850              2.199
 Vibration    13          0.643              1.822              2.024
 Vibration    14          0.653              1.791              1.858
 Vibration    15          0.666              1.754              1.692
 Vibration    16          0.666              1.752              1.686
 Vibration    17          0.691              1.677              1.428
 Vibration    18          0.706              1.634              1.306
 Vibration    19          0.713              1.615              1.259
 Vibration    20          0.717              1.602              1.227
 Vibration    21          0.729              1.569              1.154
 Vibration    22          0.735              1.553              1.118
 Vibration    23          0.771              1.457              0.940
 Vibration    24          0.782              1.429              0.895
 Vibration    25          0.786              1.418              0.878
 Vibration    26          0.818              1.337              0.764
 Vibration    27          0.832              1.304              0.722
 Vibration    28          0.852              1.258              0.667
 Vibration    29          0.864              1.231              0.637
 Vibration    30          0.902              1.147              0.551
 Vibration    31          0.916              1.117              0.523
 Vibration    32          0.940              1.067              0.479
 Vibration    33          0.965              1.018              0.438

 Optimization completed.
    -- Stationary point found.
 Normal termination of Gaussian 16 at Mon Sep 21 07:38:21 2020.

 ----------------------------------------------------------------------
 #p b3lyp/6-31G(d) scrf=(iefpcm,read,solvent=water) geom=allcheck guess
 =read
 ----------------------------------------------------------------------

 Structure from the checkpoint file:  "SM37_m0.n.12.pdb.xyz.mst.n.w.chk"
 --------------------
 SM37_m0.n.12.pdb.xyz
 --------------------
 Charge =  0 Multiplicity = 1

 SCF Done:  E(RB3LYP) =  -1638.85645068     A.U. after    6 cycles
 Normal termination of Gaussian 16 at Mon Sep 21 07:39:11 2020.

 -----------------------------
 #p B3LYP/6-31G* geom=allcheck
 -----------------------------

 Structure from the checkpoint file:  "SM37_m0.n.12.pdb.xyz.mst.n.w.chk"
 --------------------
 SM37_m0.n.12.pdb.xyz
 --------------------
 Charge =  0 Multiplicity = 1

 SCF Done:  E(RB3LYP) =  -1638.83293597     A.U. after   15 cycles

 The electronic state is 1-A.
 Alpha  occ. eigenvalues --  -89.13797 -88.97983 -19.15236 -19.14892 -19.10652
 Alpha  occ. eigenvalues --  -14.38482 -14.38328 -10.26561 -10.23334 -10.23244
 Alpha  occ. eigenvalues --  -10.21196 -10.21094 -10.20235 -10.19996 -10.19900
 Alpha  occ. eigenvalues --  -10.19337 -10.19188 -10.19156 -10.19095 -10.18842
 Alpha  occ. eigenvalues --   -8.16023  -8.02785  -6.12509  -6.12458  -6.12401
 Alpha  occ. eigenvalues --   -5.99186  -5.99020  -5.98566  -1.12806  -1.00678
 Alpha  occ. eigenvalues --   -0.99486  -0.95488  -0.94326  -0.85920  -0.84482
 Alpha  occ. eigenvalues --   -0.79410  -0.74680  -0.74458  -0.73729  -0.71918
 Alpha  occ. eigenvalues --   -0.69876  -0.67811  -0.63006  -0.61127  -0.60585
 Alpha  occ. eigenvalues --   -0.58172  -0.56673  -0.54386  -0.52691  -0.51581
 Alpha  occ. eigenvalues --   -0.50755  -0.49032  -0.48531  -0.47374  -0.46327
 Alpha  occ. eigenvalues --   -0.45731  -0.45268  -0.44413  -0.43621  -0.42914
 Alpha  occ. eigenvalues --   -0.42591  -0.42195  -0.42029  -0.41618  -0.40028
 Alpha  occ. eigenvalues --   -0.39939  -0.38759  -0.38324  -0.37118  -0.36926
 Alpha  occ. eigenvalues --   -0.35852  -0.34982  -0.34687  -0.34075  -0.33702
 Alpha  occ. eigenvalues --   -0.32873  -0.32380  -0.30822  -0.28921  -0.26375
 Alpha  occ. eigenvalues --   -0.25347  -0.25191  -0.24412  -0.22307
 Alpha virt. eigenvalues --   -0.00682  -0.00287   0.01304   0.03624   0.04567
 Alpha virt. eigenvalues --    0.06128   0.06938   0.07162   0.07622   0.09119
 Alpha virt. eigenvalues --    0.09333   0.10170   0.10759   0.11680   0.12645

 Mulliken charges:
               1
     1  O   -0.559831
     2  S    1.332773
     3  N   -0.729169
     4  C    0.217088
     5  C   -0.489972
     6  S    0.747279
     7  O   -0.629130
     8  C   -0.495126
     9  C   -0.320045
    10  C   -0.351624
    11  C    0.160036
    12  C   -0.192926
    13  C   -0.127183
    14  C   -0.132679
    15  C   -0.127672
    16  C   -0.175228
    17  N   -0.527924
    18  C   -0.324816
    19  C   -0.322849
    20  O   -0.531267
    21  H    0.357713
    22  H    0.219238
    23  H    0.207915
    24  H    0.189032
    25  H    0.229347
    26  H    0.203066
    27  H    0.132476
    28  H    0.159173
    29  H    0.150073
    30  H    0.118377
    31  H    0.127316
    32  H    0.130738
    33  H    0.137429
    34  H    0.145375
    35  H    0.207036
    36  H    0.168203
    37  H    0.166505
    38  H    0.191751
    39  H    0.171280
    40  H    0.168222
 Sum of Mulliken charges =  -0.00000

 Dipole moment (field-independent basis, Debye):
    X=             -0.5555    Y=             -3.7434    Z=              0.0858  Tot=              3.7853
 Quadrupole moment (field-independent basis, Debye-Ang):
   XX=           -148.8407   YY=           -134.2486   ZZ=           -126.2364
   XY=              3.5641   XZ=             -5.8005   YZ=             11.6696

 Normal termination of Gaussian 16 at Mon Sep 21 07:40:23 2020.
 Gaussian 16:  ES64L-G16RevB.01 20-Dec-2017

 ----------------------------------------------------------------------
 #p mp2/aug-cc-pVDZ scf=(MaxCycle=2000,NoVarAcc,NoIncFock) maxdisk=120G
 B geom=allcheck
 ----------------------------------------------------------------------

 Structure from the checkpoint file:  "SM37_m0.n.12.pdb.xyz.mst.n.w.chk"
 --------------------
 SM37_m0.n.12.pdb.xyz
 --------------------
 Charge =  0 Multiplicity = 1

                         Standard orientation:
 ---------------------------------------------------------------------
 Center     Atomic      Atomic             Coordinates (Angstroms)
 Number     Number       Type             X           Y           Z
 ---------------------------------------------------------------------
      1          8           0        3.270359    0.793444   -0.478661
      2         16           0        2.754546   -0.325035    0.325480
      3          7           0        1.346179    0.043771    1.137768
      4          6           0        0.359209    1.023709    0.650406
      5          6           0       -0.113121    0.797468   -0.802687
      6         16           0       -0.205521    2.633713   -1.125793
      7          8           0       -1.589406    3.152431   -0.736367
      8          6           0        0.855960    2.471191    0.402397
      9          6           0       -0.798902    1.054832    1.664680
     10          6           0       -1.519784   -0.275895    1.948617
     11          6           0       -2.504068   -0.745376    0.894649
     12          6           0       -2.414175   -2.036476    0.359654
     13          6           0       -3.338801   -2.493122   -0.582846
     14          6           0       -4.375601   -1.660540   -1.005621
     15          6           0       -4.480067   -0.370844   -0.476950
     16          6           0       -3.554735    0.078853    0.464513
     17          7           0        2.196721   -1.455525   -0.778296
     18          6           0        3.045297   -1.634024   -1.970236
     19          6           0        1.722811   -2.712869   -0.180126
     20          8           0        3.637588   -0.904477    1.350945
     21          1           0        1.565925    0.147429    2.130498
     22          1           0       -1.059149    0.280743   -0.949715
     23          1           0        0.659288    0.374337   -1.444824
     24          1           0        0.630241    3.218501    1.164516
     25          1           0        1.899744    2.518098    0.093539
     26          1           0       -1.506486    1.808071    1.305218
     27          1           0       -0.388883    1.438751    2.606322
     28          1           0       -2.061671   -0.146172    2.893506
     29          1           0       -0.779564   -1.061278    2.125969
     30          1           0       -1.610715   -2.689299    0.688113
     31          1           0       -3.247168   -3.497789   -0.985041
     32          1           0       -5.095692   -2.011023   -1.738604
     33          1           0       -5.284115    0.283886   -0.796308
     34          1           0       -3.644319    1.084269    0.865260
     35          1           0        3.311339   -0.657651   -2.370072
     36          1           0        2.451664   -2.177038   -2.708141
     37          1           0        3.955470   -2.206932   -1.753815
     38          1           0        1.079209   -2.483937    0.668368
     39          1           0        2.549929   -3.354582    0.145700
     40          1           0        1.137784   -3.237572   -0.937823
 ---------------------------------------------------------------------

 SCF Done:  E(RHF) =  -1632.40272137     A.U. after   17 cycles
