 Gaussian 16, Revision B.01,

 ----------------------------------------------------------------------
 #p b3lyp/6-31G(d) opt freq NoSymm scf=(MaxCycle=2000,NoVarAcc,NoIncFoc
 k) scrf=(iefpcm,read,solvent=water)
 ----------------------------------------------------------------------

 --------------------
 SM37_m0.n.11.pdb.xyz
 --------------------
 Symbolic Z-matrix:
 Charge =  0 Multiplicity = 1

 SCF Done:  E(RB3LYP) =  -1638.85499349     A.U. after   13 cycles
 SCF Done:  E(RB3LYP) =  -1638.85519681     A.U. after   10 cycles
 SCF Done:  E(RB3LYP) =  -1638.85528189     A.U. after   10 cycles
 SCF Done:  E(RB3LYP) =  -1638.85517658     A.U. after   10 cycles
 SCF Done:  E(RB3LYP) =  -1638.85525117     A.U. after   10 cycles
 SCF Done:  E(RB3LYP) =  -1638.85529151     A.U. after   10 cycles
 SCF Done:  E(RB3LYP) =  -1638.85530320     A.U. after    9 cycles
 SCF Done:  E(RB3LYP) =  -1638.85529616     A.U. after    8 cycles
 SCF Done:  E(RB3LYP) =  -1638.85532558     A.U. after    9 cycles
 SCF Done:  E(RB3LYP) =  -1638.85530962     A.U. after    8 cycles
 SCF Done:  E(RB3LYP) =  -1638.85530887     A.U. after    8 cycles
 SCF Done:  E(RB3LYP) =  -1638.85530930     A.U. after    8 cycles
 SCF Done:  E(RB3LYP) =  -1638.85530971     A.U. after    8 cycles
 SCF Done:  E(RB3LYP) =  -1638.85530970     A.U. after    7 cycles
 SCF Done:  E(RB3LYP) =  -1638.85530972     A.U. after    7 cycles
 Optimization completed.
    -- Stationary point found.
 Normal termination of Gaussian 16 at Mon Sep 21 06:50:07 2020.

 --------------------------------------------------------------------
 #P Geom=AllCheck Guess=TCheck SCRF=Check GenChk RB3LYP/6-31G(d) Freq
 --------------------------------------------------------------------

 Structure from the checkpoint file:  "SM37_m0.n.11.pdb.xyz.mst.n.w.chk"
 --------------------
 SM37_m0.n.11.pdb.xyz
 --------------------
 Charge =  0 Multiplicity = 1

 SCF Done:  E(RB3LYP) =  -1638.85530972     A.U. after    1 cycles

  Exact polarizability: 277.344  28.241 248.951 -27.161  33.406 219.458
 Approx polarizability: 303.967  34.694 282.905 -29.260  40.078 253.021

                      1                      2                      3
                      A                      A                      A
 Frequencies --     20.7535                28.5867                42.2833
 Red. masses --      4.8738                 6.7363                 4.3402
 Frc consts  --      0.0012                 0.0032                 0.0046
 IR Inten    --      3.2596                 1.4989                 0.4614

                      4                      5                      6
                      A                      A                      A
 Frequencies --     50.3140                62.4852                70.2206
 Red. masses --      4.8626                 3.6909                 5.0029
 Frc consts  --      0.0073                 0.0085                 0.0145
 IR Inten    --      1.6321                 0.5045                 3.9367

                      7                      8                      9
                      A                      A                      A
 Frequencies --     90.7363               114.2844               159.7649
 Red. masses --      4.5074                 4.2599                 2.4004
 Frc consts  --      0.0219                 0.0328                 0.0361
 IR Inten    --     11.2836                 7.2009                11.9804

                     10                     11                     12
                      A                      A                      A
 Frequencies --    171.1271               183.2815               193.0487
 Red. masses --      4.8261                 3.6979                 2.5338
 Frc consts  --      0.0833                 0.0732                 0.0556
 IR Inten    --     11.5123                 2.0509                18.2980

                     13                     14                     15
                      A                      A                      A
 Frequencies --    206.0718               218.4456               237.8694
 Red. masses --      2.1546                 3.2258                 1.3292
 Frc consts  --      0.0539                 0.0907                 0.0443
 IR Inten    --      2.4348                 1.8337                 5.6727

                     16                     17                     18
                      A                      A                      A
 Frequencies --    291.5278               294.1336               317.7163
 Red. masses --      4.4530                 3.2688                 3.7345
 Frc consts  --      0.2230                 0.1666                 0.2221
 IR Inten    --      1.3598                16.6994                15.0400

                     19                     20                     21
                      A                      A                      A
 Frequencies --    326.9285               350.2718               357.4132
 Red. masses --      2.6783                 3.2483                 3.1410
 Frc consts  --      0.1687                 0.2348                 0.2364
 IR Inten    --      3.2020                 6.7043                18.9885

                     22                     23                     24
                      A                      A                      A
 Frequencies --    374.6188               389.9899               402.8212
 Red. masses --      2.1384                 2.5453                 2.3790
 Frc consts  --      0.1768                 0.2281                 0.2274
 IR Inten    --      0.1409                 5.0485                 7.7889

                     25                     26                     27
                      A                      A                      A
 Frequencies --    419.1481               459.6299               477.3945
 Red. masses --      2.9469                 5.2878                 3.0234
 Frc consts  --      0.3050                 0.6582                 0.4060
 IR Inten    --      0.0436                47.1205                 9.2382

                     28                     29                     30
                      A                      A                      A
 Frequencies --    492.0428               511.8066               540.1078
 Red. masses --      3.5503                 4.0486                 3.4831
 Frc consts  --      0.5064                 0.6248                 0.5987
 IR Inten    --     20.3347                 7.6747               112.8040

                     31                     32                     33
                      A                      A                      A
 Frequencies --    558.0833               595.6420               601.5390
 Red. masses --      5.0013                 3.4467                 3.2846
 Frc consts  --      0.9178                 0.7205                 0.7003
 IR Inten    --     38.1279               100.8899                29.4820

                     34                     35                     36
                      A                      A                      A
 Frequencies --    635.3237               639.7073               687.9951
 Red. masses --      6.3035                 4.5034                 5.1554
 Frc consts  --      1.4991                 1.0858                 1.4378
 IR Inten    --      0.4021                20.5124               187.5201

                     37                     38                     39
                      A                      A                      A
 Frequencies --    717.3763               727.8756               748.5890
 Red. masses --      2.0526                 3.4012                 2.4610
 Frc consts  --      0.6224                 1.0617                 0.8125
 IR Inten    --     33.4245                45.8823                31.7302

                     40                     41                     42
                      A                      A                      A
 Frequencies --    776.3883               778.6965               824.0475
 Red. masses --      2.7166                 2.0736                 1.7417
 Frc consts  --      0.9648                 0.7408                 0.6968
 IR Inten    --      8.7285                17.7597                 5.2409

                     43                     44                     45
                      A                      A                      A
 Frequencies --    850.0025               864.7200               892.2584
 Red. masses --      3.2826                 1.2585                 2.1568
 Frc consts  --      1.3973                 0.5545                 1.0117
 IR Inten    --    146.7243                 0.8545                44.6088

                     46                     47                     48
                      A                      A                      A
 Frequencies --    914.0911               940.3474               945.7374
 Red. masses --      2.2331                 1.7623                 2.9091
 Frc consts  --      1.0993                 0.9181                 1.5330
 IR Inten    --    167.2628                52.9427               198.2844

                     49                     50                     51
                      A                      A                      A
 Frequencies --    963.9889               977.2896               991.6495
 Red. masses --      2.2050                 1.3608                 2.0820
 Frc consts  --      1.2073                 0.7658                 1.2063
 IR Inten    --     11.2695                 0.7227               120.2577

                     52                     53                     54
                      A                      A                      A
 Frequencies --   1006.4328              1017.1197              1032.4517
 Red. masses --      1.2576                 6.1743                 3.4204
 Frc consts  --      0.7505                 3.7634                 2.1481
 IR Inten    --      0.6152                 0.9394                 4.6796

                     55                     56                     57
                      A                      A                      A
 Frequencies --   1055.3470              1058.1090              1067.1135
 Red. masses --      1.2265                 2.3261                 2.4241
 Frc consts  --      0.8048                 1.5344                 1.6264
 IR Inten    --      1.5014                47.1358               161.3008

                     58                     59                     60
                      A                      A                      A
 Frequencies --   1070.6748              1090.8439              1105.3219
 Red. masses --      1.5768                 4.2061                 2.2507
 Frc consts  --      1.0650                 2.9489                 1.6201
 IR Inten    --     15.6782               155.0225                90.9287

                     61                     62                     63
                      A                      A                      A
 Frequencies --   1113.5281              1132.1553              1134.6406
 Red. masses --      2.8560                 1.2323                 2.0742
 Frc consts  --      2.0865                 0.9306                 1.5733
 IR Inten    --     12.5334                 2.1418                52.5553

                     64                     65                     66
                      A                      A                      A
 Frequencies --   1178.0359              1189.5540              1196.2781
 Red. masses --      1.3688                 1.0960                 1.3008
 Frc consts  --      1.1192                 0.9138                 1.0968
 IR Inten    --      3.3626                 0.2189                 5.0941

                     67                     68                     69
                      A                      A                      A
 Frequencies --   1209.1474              1220.1723              1221.5879
 Red. masses --      1.1392                 1.3073                 3.6460
 Frc consts  --      0.9813                 1.1468                 3.2056
 IR Inten    --      0.7619                 5.1814                21.1847

                     70                     71                     72
                      A                      A                      A
 Frequencies --   1236.5998              1246.4179              1266.1044
 Red. masses --      2.7070                 2.8495                 2.4964
 Frc consts  --      2.4389                 2.6082                 2.3578
 IR Inten    --     16.2715               135.5218               247.9480

                     73                     74                     75
                      A                      A                      A
 Frequencies --   1277.3958              1285.7026              1311.1103
 Red. masses --      1.9317                 2.1479                 1.3875
 Frc consts  --      1.8571                 2.0919                 1.4052
 IR Inten    --     75.1073                47.5250                47.5458

                     76                     77                     78
                      A                      A                      A
 Frequencies --   1359.2935              1367.6568              1404.2337
 Red. masses --      4.2778                 1.3220                 1.3463
 Frc consts  --      4.6569                 1.4570                 1.5641
 IR Inten    --      2.5052                 2.8125                37.0182

                     79                     80                     81
                      A                      A                      A
 Frequencies --   1417.1581              1449.1837              1449.7645
 Red. masses --      1.3457                 1.0928                 1.1393
 Frc consts  --      1.5923                 1.3522                 1.4108
 IR Inten    --     24.0865                14.6188                 2.2821

                     82                     83                     84
                      A                      A                      A
 Frequencies --   1457.6545              1472.6473              1473.0129
 Red. masses --      1.2346                 1.1489                 1.1506
 Frc consts  --      1.5456                 1.4680                 1.4709
 IR Inten    --     77.8849                 3.6630                10.1654

                     85                     86                     87
                      A                      A                      A
 Frequencies --   1502.2364              1503.2309              1507.1188
 Red. masses --      1.9123                 1.0500                 1.1259
 Frc consts  --      2.5427                 1.3979                 1.5068
 IR Inten    --      4.4334                 9.3329                 3.4993

                     88                     89                     90
                      A                      A                      A
 Frequencies --   1514.7926              1514.8213              1530.8783
 Red. masses --      1.0557                 1.0491                 1.0506
 Frc consts  --      1.4272                 1.4184                 1.4506
 IR Inten    --     14.1778                27.4280                13.4051

                     91                     92                     93
                      A                      A                      A
 Frequencies --   1543.7259              1552.4225              1642.4000
 Red. masses --      2.0394                 1.1380                 5.4493
 Frc consts  --      2.8635                 1.6159                 8.6605
 IR Inten    --     18.0300                17.4440                 1.3238

                     94                     95                     96
                      A                      A                      A
 Frequencies --   1661.7693              3055.6114              3057.5256
 Red. masses --      5.6348                 1.0427                 1.0465
 Frc consts  --      9.1678                 5.7359                 5.7638
 IR Inten    --      7.3255                35.2798               108.4557

                     97                     98                     99
                      A                      A                      A
 Frequencies --   3065.7278              3073.0467              3102.0025
 Red. masses --      1.0627                 1.0615                 1.1023
 Frc consts  --      5.8849                 5.9064                 6.2496
 IR Inten    --     11.0552                84.6498                47.5044

                    100                    101                    102
                      A                      A                      A
 Frequencies --   3123.2831              3125.8874              3139.6243
 Red. masses --      1.1001                 1.0588                 1.0588
 Frc consts  --      6.3230                 6.0953                 6.1495
 IR Inten    --     23.8657                10.4173                 3.2937

                    103                    104                    105
                      A                      A                      A
 Frequencies --   3140.4404              3144.8905              3184.3646
 Red. masses --      1.0944                 1.0934                 1.1040
 Frc consts  --      6.3595                 6.3715                 6.5958
 IR Inten    --     39.5582                17.2807                13.1357

                    106                    107                    108
                      A                      A                      A
 Frequencies --   3192.7602              3195.1225              3202.0148
 Red. masses --      1.0867                 1.0876                 1.0900
 Frc consts  --      6.5266                 6.5417                 6.5846
 IR Inten    --     11.3531                14.6694                26.6095

                    109                    110                    111
                      A                      A                      A
 Frequencies --   3204.4277              3207.6223              3216.3511
 Red. masses --      1.1104                 1.1012                 1.0936
 Frc consts  --      6.7178                 6.6754                 6.6656
 IR Inten    --      1.5243                 6.0792                65.8039

                    112                    113                    114
                      A                      A                      A
 Frequencies --   3218.0134              3225.0017              3522.2564
 Red. masses --      1.1087                 1.0974                 1.0755
 Frc consts  --      6.7643                 6.7245                 7.8611
 IR Inten    --      2.2833                26.9385               111.8757

 - Thermochemistry -
 -------------------
 Temperature   298.150 Kelvin.  Pressure   1.00000 Atm.
 Atom     1 has atomic number  8 and mass  15.99491

 Molecular mass:   316.09154 amu.
 Principal axes and moments of inertia in atomic units:
                           1         2         3
     Eigenvalues --  4425.685278698.16304**********
           X            0.99994  -0.00265  -0.01026
           Y            0.00284   0.99983   0.01839
           Z            0.01021  -0.01842   0.99978
 This molecule is an asymmetric top.
 Rotational symmetry number  1.
 Warning -- assumption of classical behavior for rotation
           may cause significant error
 Rotational temperatures (Kelvin)      0.01957     0.00996     0.00784
 Rotational constants (GHZ):           0.40779     0.20749     0.16344
 Zero-point vibrational energy     860880.6 (Joules/Mol)
                                  205.75539 (Kcal/Mol)
 Warning -- explicit consideration of  33 degrees of freedom as
           vibrations may cause significant error
 Vibrational temperatures:     29.86    41.13    60.84    72.39    89.90
          (Kelvin)            101.03   130.55   164.43   229.87   246.21
                              263.70   277.75   296.49   314.29   342.24
                              419.44   423.19   457.12   470.38   503.96
                              514.24   538.99   561.11   579.57   603.06
                              661.30   686.86   707.94   736.38   777.09
                              802.96   857.00   865.48   914.09   920.40
                              989.87  1032.14  1047.25  1077.05  1117.05
                             1120.37  1185.62  1222.96  1244.14  1283.76
                             1315.17  1352.95  1360.71  1386.97  1406.10
                             1426.76  1448.03  1463.41  1485.47  1518.41
                             1522.38  1535.34  1540.46  1569.48  1590.31
                             1602.12  1628.92  1632.49  1694.93  1711.50
                             1721.18  1739.69  1755.56  1757.59  1779.19
                             1793.32  1821.64  1837.89  1849.84  1886.40
                             1955.72  1967.75  2020.38  2038.97  2085.05
                             2085.89  2097.24  2118.81  2119.34  2161.38
                             2162.81  2168.41  2179.45  2179.49  2202.59
                             2221.08  2233.59  2363.05  2390.92  4396.34
                             4399.10  4410.90  4421.43  4463.09  4493.71
                             4497.45  4517.22  4518.39  4524.80  4581.59
                             4593.67  4597.07  4606.99  4610.46  4615.05
                             4627.61  4630.00  4640.06  5067.74

 Zero-point correction=                           0.327892 (Hartree/Particle)
 Thermal correction to Energy=                    0.348489
 Thermal correction to Enthalpy=                  0.349433
 Thermal correction to Gibbs Free Energy=         0.277008
 Sum of electronic and zero-point Energies=          -1638.527418
 Sum of electronic and thermal Energies=             -1638.506821
 Sum of electronic and thermal Enthalpies=           -1638.505877
 Sum of electronic and thermal Free Energies=        -1638.578301

                     E (Thermal)             CV                S
                      KCal/Mol        Cal/Mol-Kelvin    Cal/Mol-Kelvin
 Total                  218.680             78.450            152.430
 Electronic               0.000              0.000              0.000
 Translational            0.889              2.981             43.148
 Rotational               0.889              2.981             34.407
 Vibrational            216.902             72.488             74.874
 Vibration     1          0.593              1.986              6.561
 Vibration     2          0.593              1.984              5.925
 Vibration     3          0.595              1.980              5.149
 Vibration     4          0.595              1.977              4.805
 Vibration     5          0.597              1.972              4.377
 Vibration     6          0.598              1.968              4.147
 Vibration     7          0.602              1.956              3.644
 Vibration     8          0.607              1.938              3.195
 Vibration     9          0.622              1.892              2.553
 Vibration    10          0.626              1.878              2.423
 Vibration    11          0.631              1.863              2.295
 Vibration    12          0.635              1.850              2.198
 Vibration    13          0.641              1.831              2.078
 Vibration    14          0.646              1.813              1.972
 Vibration    15          0.656              1.783              1.819
 Vibration    16          0.687              1.690              1.465
 Vibration    17          0.689              1.685              1.450
 Vibration    18          0.704              1.640              1.322
 Vibration    19          0.711              1.622              1.275
 Vibration    20          0.727              1.575              1.165
 Vibration    21          0.733              1.560              1.133
 Vibration    22          0.746              1.524              1.061
 Vibration    23          0.758              1.492              1.000
 Vibration    24          0.768              1.464              0.952
 Vibration    25          0.782              1.429              0.895
 Vibration    26          0.818              1.340              0.767
 Vibration    27          0.834              1.300              0.717
 Vibration    28          0.848              1.268              0.678
 Vibration    29          0.867              1.224              0.629
 Vibration    30          0.895              1.161              0.565
 Vibration    31          0.914              1.122              0.528
 Vibration    32          0.953              1.041              0.457
 Vibration    33          0.960              1.029              0.447

                           ! Non-Optimized Parameters !
 Normal termination of Gaussian 16 at Mon Sep 21 07:07:21 2020.

 ----------------------------------------------------------------------
 #p b3lyp/6-31G(d) scrf=(iefpcm,read,solvent=water) geom=allcheck guess
 =read
 ----------------------------------------------------------------------

 Structure from the checkpoint file:  "SM37_m0.n.11.pdb.xyz.mst.n.w.chk"
 --------------------
 SM37_m0.n.11.pdb.xyz
 --------------------
 Charge =  0 Multiplicity = 1

 SCF Done:  E(RB3LYP) =  -1638.85530901     A.U. after    4 cycles
 Normal termination of Gaussian 16 at Mon Sep 21 07:07:57 2020.

 -----------------------------
 #p B3LYP/6-31G* geom=allcheck
 -----------------------------

 Structure from the checkpoint file:  "SM37_m0.n.11.pdb.xyz.mst.n.w.chk"
 --------------------
 SM37_m0.n.11.pdb.xyz
 --------------------
 Charge =  0 Multiplicity = 1

 SCF Done:  E(RB3LYP) =  -1638.83253809     A.U. after   15 cycles

 The electronic state is 1-A.
 Alpha  occ. eigenvalues --  -89.13576 -88.97481 -19.14847 -19.14767 -19.10173
 Alpha  occ. eigenvalues --  -14.38458 -14.37936 -10.26502 -10.23354 -10.23085
 Alpha  occ. eigenvalues --  -10.20951 -10.20636 -10.20474 -10.20167 -10.19927
 Alpha  occ. eigenvalues --  -10.19090 -10.19066 -10.18964 -10.18948 -10.18895
 Alpha  occ. eigenvalues --   -8.15807  -8.02289  -6.12282  -6.12254  -6.12186
 Alpha  occ. eigenvalues --   -5.98691  -5.98522  -5.98071  -1.12534  -1.00302
 Alpha  occ. eigenvalues --   -0.98997  -0.95464  -0.93959  -0.85819  -0.84137
 Alpha  occ. eigenvalues --   -0.79408  -0.74424  -0.74345  -0.73657  -0.71869
 Alpha  occ. eigenvalues --   -0.69462  -0.67445  -0.62439  -0.61307  -0.60475
 Alpha  occ. eigenvalues --   -0.58077  -0.55921  -0.55129  -0.52077  -0.51203
 Alpha  occ. eigenvalues --   -0.50669  -0.48956  -0.47829  -0.47100  -0.46477
 Alpha  occ. eigenvalues --   -0.45964  -0.45142  -0.44513  -0.43335  -0.42744
 Alpha  occ. eigenvalues --   -0.42094  -0.42041  -0.41805  -0.41412  -0.39883
 Alpha  occ. eigenvalues --   -0.39394  -0.38584  -0.37843  -0.37226  -0.36804
 Alpha  occ. eigenvalues --   -0.35453  -0.34988  -0.34691  -0.33900  -0.33507
 Alpha  occ. eigenvalues --   -0.32933  -0.32169  -0.30522  -0.28187  -0.26308
 Alpha  occ. eigenvalues --   -0.25071  -0.24880  -0.24343  -0.21936
 Alpha virt. eigenvalues --   -0.00541  -0.00220   0.01803   0.04034   0.04740
 Alpha virt. eigenvalues --    0.06082   0.06934   0.07457   0.09007   0.09476
 Alpha virt. eigenvalues --    0.09960   0.10124   0.10735   0.12422   0.12728

 Mulliken charges:
               1
     1  O   -0.561706
     2  S    1.317707
     3  N   -0.729978
     4  C    0.226552
     5  C   -0.478353
     6  S    0.747285
     7  O   -0.630872
     8  C   -0.496585
     9  C   -0.312187
    10  C   -0.376426
    11  C    0.167653
    12  C   -0.176839
    13  C   -0.127050
    14  C   -0.131962
    15  C   -0.126905
    16  C   -0.186953
    17  N   -0.524651
    18  C   -0.318776
    19  C   -0.321815
    20  O   -0.534579
    21  H    0.354094
    22  H    0.186593
    23  H    0.217894
    24  H    0.220822
    25  H    0.218667
    26  H    0.144878
    27  H    0.202890
    28  H    0.133861
    29  H    0.162452
    30  H    0.136390
    31  H    0.135720
    32  H    0.132240
    33  H    0.135706
    34  H    0.129661
    35  H    0.188239
    36  H    0.166926
    37  H    0.171082
    38  H    0.208938
    39  H    0.164100
    40  H    0.165284
 Sum of Mulliken charges =  -0.00000

 Dipole moment (field-independent basis, Debye):
    X=             -3.3348    Y=             -2.8100    Z=              3.5665  Tot=              5.6336
 Quadrupole moment (field-independent basis, Debye-Ang):
   XX=           -119.1244   YY=           -142.5252   ZZ=           -131.5961
   XY=             -5.3635   XZ=             -8.7389   YZ=              2.7705

 Normal termination of Gaussian 16 at Mon Sep 21 07:09:09 2020.
 Gaussian 16:  ES64L-G16RevB.01 20-Dec-2017

 ----------------------------------------------------------------------
 #p mp2/aug-cc-pVDZ scf=(MaxCycle=2000,NoVarAcc,NoIncFock) maxdisk=120G
 B geom=allcheck
 ----------------------------------------------------------------------

 Structure from the checkpoint file:  "SM37_m0.n.11.pdb.xyz.mst.n.w.chk"
 --------------------
 SM37_m0.n.11.pdb.xyz
 --------------------
 Charge =  0 Multiplicity = 1

                         Standard orientation:
 ---------------------------------------------------------------------
 Center     Atomic      Atomic             Coordinates (Angstroms)
 Number     Number       Type             X           Y           Z
 ---------------------------------------------------------------------
      1          8           0       -2.534562    0.704893   -1.298976
      2         16           0       -2.234131   -0.492774   -0.493273
      3          7           0       -1.210218    0.005160    0.728484
      4          6           0       -0.115209    0.968933    0.492073
      5          6           0       -0.595956    2.435831    0.349564
      6         16           0        0.705777    2.811454   -0.938801
      7          8           0        1.987459    3.283914   -0.253057
      8          6           0        0.621030    0.948060   -0.880801
      9          6           0        0.861870    0.877372    1.685023
     10          6           0        1.520225   -0.482927    2.003121
     11          6           0        2.447525   -1.051828    0.949833
     12          6           0        3.723261   -0.506081    0.744984
     13          6           0        4.578515   -1.029478   -0.225311
     14          6           0        4.174164   -2.116130   -1.005411
     15          6           0        2.910728   -2.674549   -0.804920
     16          6           0        2.057605   -2.145970    0.166497
     17          7           0       -3.511981   -1.015264    0.446534
     18          6           0       -4.269951    0.050507    1.120880
     19          6           0       -4.349468   -2.060471   -0.159544
     20          8           0       -1.736262   -1.675736   -1.211462
     21          1           0       -0.944471   -0.806257    1.285433
     22          1           0       -0.526030    3.073111    1.232575
     23          1           0       -1.571236    2.520268   -0.128845
     24          1           0        1.598544    0.473245   -0.927276
     25          1           0       -0.007104    0.624647   -1.710888
     26          1           0        0.314162    1.201657    2.577007
     27          1           0        1.635232    1.628726    1.500200
     28          1           0        0.757913   -1.231234    2.243754
     29          1           0        2.083246   -0.332991    2.931089
     30          1           0        4.049180    0.334525    1.351101
     31          1           0        5.561964   -0.593800   -0.368103
     32          1           0        4.840271   -2.525736   -1.758674
     33          1           0        2.588667   -3.521672   -1.401394
     34          1           0        1.073459   -2.580725    0.315527
     35          1           0       -3.574873    0.746823    1.589157
     36          1           0       -4.875505   -0.421469    1.896933
     37          1           0       -4.927544    0.590455    0.429666
     38          1           0       -3.714461   -2.835696   -0.581838
     39          1           0       -5.016334   -1.666043   -0.935380
     40          1           0       -4.955147   -2.490162    0.640057
 ---------------------------------------------------------------------

 SCF Done:  E(RHF) =  -1632.40283224     A.U. after   17 cycles
