 Gaussian 16, Revision B.01,

 ----------------------------------------------------------------------
 #p b3lyp/6-31G(d) opt freq NoSymm scf=(MaxCycle=2000,NoVarAcc,NoIncFoc
 k) scrf=(iefpcm,read,solvent=water)
 ----------------------------------------------------------------------

 --------------------
 SM37_m0.n.13.pdb.xyz
 --------------------
 Symbolic Z-matrix:
 Charge =  0 Multiplicity = 1

 SCF Done:  E(RB3LYP) =  -1638.85754711     A.U. after   13 cycles
 SCF Done:  E(RB3LYP) =  -1638.85767174     A.U. after   10 cycles
 SCF Done:  E(RB3LYP) =  -1638.85773397     A.U. after   10 cycles
 SCF Done:  E(RB3LYP) =  -1638.85771803     A.U. after    9 cycles
 SCF Done:  E(RB3LYP) =  -1638.85768209     A.U. after    9 cycles
 SCF Done:  E(RB3LYP) =  -1638.85773389     A.U. after    9 cycles
 SCF Done:  E(RB3LYP) =  -1638.85768923     A.U. after   10 cycles
 SCF Done:  E(RB3LYP) =  -1638.85766501     A.U. after    8 cycles
 SCF Done:  E(RB3LYP) =  -1638.85773285     A.U. after   10 cycles
 SCF Done:  E(RB3LYP) =  -1638.85767312     A.U. after   10 cycles
 SCF Done:  E(RB3LYP) =  -1638.85772776     A.U. after    4 cycles
 SCF Done:  E(RB3LYP) =  -1638.85772774     A.U. after    4 cycles
 SCF Done:  E(RB3LYP) =  -1638.85772774     A.U. after    2 cycles
 SCF Done:  E(RB3LYP) =  -1638.85767409     A.U. after   10 cycles
 SCF Done:  E(RB3LYP) =  -1638.85767412     A.U. after    7 cycles
 SCF Done:  E(RB3LYP) =  -1638.85767412     A.U. after    6 cycles
 Optimization completed.
    -- Stationary point found.
 Normal termination of Gaussian 16 at Mon Sep 21 07:17:37 2020.

 --------------------------------------------------------------------
 #P Geom=AllCheck Guess=TCheck SCRF=Check GenChk RB3LYP/6-31G(d) Freq
 --------------------------------------------------------------------

 Structure from the checkpoint file:  "SM37_m0.n.13.pdb.xyz.mst.n.w.chk"
 --------------------
 SM37_m0.n.13.pdb.xyz
 --------------------
 Charge =  0 Multiplicity = 1

 SCF Done:  E(RB3LYP) =  -1638.85767412     A.U. after    1 cycles

  Exact polarizability: 261.728 -24.493 236.592   4.729   4.127 246.478
 Approx polarizability: 277.658 -26.109 265.766   5.981   3.340 291.184

                      1                      2                      3
                      A                      A                      A
 Frequencies --     11.2693                16.4510                21.5674
 Red. masses --      4.9080                 4.1002                 3.9908
 Frc consts  --      0.0004                 0.0007                 0.0011
 IR Inten    --      4.5026                 1.0856                 2.2853

                      4                      5                      6
                      A                      A                      A
 Frequencies --     33.3746                43.0197                48.1273
 Red. masses --      7.2413                 4.8071                 2.9267
 Frc consts  --      0.0048                 0.0052                 0.0040
 IR Inten    --      4.0858                 4.6273                 1.2222

                      7                      8                      9
                      A                      A                      A
 Frequencies --     78.4971               110.1511               128.9665
 Red. masses --      4.0079                 4.8002                 3.2602
 Frc consts  --      0.0146                 0.0343                 0.0319
 IR Inten    --      4.4291                 5.6732                 3.0976

                     10                     11                     12
                      A                      A                      A
 Frequencies --    141.0217               184.0314               193.7447
 Red. masses --      3.3935                 4.8919                 1.0837
 Frc consts  --      0.0398                 0.0976                 0.0240
 IR Inten    --      2.3768                 6.8115                 1.8746

                     13                     14                     15
                      A                      A                      A
 Frequencies --    213.0099               218.9237               227.3102
 Red. masses --      1.4232                 3.5690                 5.3971
 Frc consts  --      0.0380                 0.1008                 0.1643
 IR Inten    --      1.2328                11.4971                12.2701

                     16                     17                     18
                      A                      A                      A
 Frequencies --    268.3384               275.8881               289.1739
 Red. masses --      3.7630                 4.3334                 2.4633
 Frc consts  --      0.1596                 0.1943                 0.1214
 IR Inten    --      0.0079                 4.7821                 1.8198

                     19                     20                     21
                      A                      A                      A
 Frequencies --    317.0653               330.3201               343.1529
 Red. masses --      3.8449                 2.3900                 2.7738
 Frc consts  --      0.2277                 0.1536                 0.1924
 IR Inten    --      6.5023                 7.5100                17.6455

                     22                     23                     24
                      A                      A                      A
 Frequencies --    364.5796               372.4100               390.4137
 Red. masses --      3.1059                 3.2752                 3.6920
 Frc consts  --      0.2432                 0.2676                 0.3316
 IR Inten    --     12.6234                 4.6191                 6.2567

                     25                     26                     27
                      A                      A                      A
 Frequencies --    420.7583               462.4663               471.6974
 Red. masses --      2.9669                 3.7822                 4.5217
 Frc consts  --      0.3095                 0.4766                 0.5928
 IR Inten    --      0.0139                 2.9564                36.9070

                     28                     29                     30
                      A                      A                      A
 Frequencies --    493.0288               511.6747               533.9773
 Red. masses --      4.0823                 3.6741                 4.9747
 Frc consts  --      0.5846                 0.5667                 0.8357
 IR Inten    --     26.8008                40.2248                37.3399

                     31                     32                     33
                      A                      A                      A
 Frequencies --    576.5994               594.3580               634.9177
 Red. masses --      4.5388                 4.7537                 6.3270
 Frc consts  --      0.8891                 0.9894                 1.5027
 IR Inten    --     15.5558                46.3633                 0.2376

                     34                     35                     36
                      A                      A                      A
 Frequencies --    640.2055               663.6723               688.7330
 Red. masses --      3.8357                 3.5043                 5.7094
 Frc consts  --      0.9263                 0.9094                 1.5957
 IR Inten    --    114.5763                70.8998               192.7352

                     37                     38                     39
                      A                      A                      A
 Frequencies --    717.3859               729.1579               764.2169
 Red. masses --      2.1243                 2.8658                 1.2829
 Frc consts  --      0.6441                 0.8977                 0.4414
 IR Inten    --      7.1909               126.9472                11.2834

                     40                     41                     42
                      A                      A                      A
 Frequencies --    772.5890               798.3786               807.7500
 Red. masses --      1.9166                 1.6893                 4.3297
 Frc consts  --      0.6740                 0.6344                 1.6644
 IR Inten    --     32.7747                32.8856                 1.8883

                     43                     44                     45
                      A                      A                      A
 Frequencies --    842.0859               865.4473               867.8523
 Red. masses --      3.4654                 2.0074                 1.2746
 Frc consts  --      1.4478                 0.8859                 0.5656
 IR Inten    --      4.4447                87.0805                 5.2488

                     46                     47                     48
                      A                      A                      A
 Frequencies --    888.3948               932.4517               955.5801
 Red. masses --      2.8727                 1.4417                 3.0912
 Frc consts  --      1.3358                 0.7385                 1.6631
 IR Inten    --    224.1478                 5.5488               179.9026

                     49                     50                     51
                      A                      A                      A
 Frequencies --    965.6879               979.3992               990.3429
 Red. masses --      1.9314                 1.3595                 2.0603
 Frc consts  --      1.0612                 0.7684                 1.1906
 IR Inten    --      9.1287                 0.2712                28.1485

                     52                     53                     54
                      A                      A                      A
 Frequencies --   1004.6989              1016.4987              1039.4834
 Red. masses --      1.2584                 6.2403                 4.2683
 Frc consts  --      0.7484                 3.7990                 2.7173
 IR Inten    --      0.0481                 0.5346               101.9470

                     55                     56                     57
                      A                      A                      A
 Frequencies --   1055.2565              1064.1395              1069.5001
 Red. masses --      2.2205                 3.2075                 1.2203
 Frc consts  --      1.4568                 2.1400                 0.8224
 IR Inten    --     10.4822               144.6023                26.4286

                     58                     59                     60
                      A                      A                      A
 Frequencies --   1075.4961              1083.4258              1105.6352
 Red. masses --      1.5394                 1.7616                 6.5267
 Frc consts  --      1.0491                 1.2183                 4.7008
 IR Inten    --     20.7725                 8.7822               227.2981

                     61                     62                     63
                      A                      A                      A
 Frequencies --   1123.4225              1133.0095              1138.1511
 Red. masses --      2.6112                 1.2187                 1.9067
 Frc consts  --      1.9417                 0.9218                 1.4552
 IR Inten    --     43.5856                 3.3506                12.4943

                     64                     65                     66
                      A                      A                      A
 Frequencies --   1175.6872              1186.6758              1192.4565
 Red. masses --      1.3812                 1.0909                 1.3056
 Frc consts  --      1.1248                 0.9051                 1.0939
 IR Inten    --      2.5910                 0.1510                 4.9469

                     67                     68                     69
                      A                      A                      A
 Frequencies --   1205.7522              1230.0606              1232.1508
 Red. masses --      1.1345                 3.7428                 1.6017
 Frc consts  --      0.9718                 3.3365                 1.4327
 IR Inten    --      0.5683                16.2688                36.7166

                     70                     71                     72
                      A                      A                      A
 Frequencies --   1237.3386              1242.1138              1255.0923
 Red. masses --      2.2667                 1.6623                 2.1811
 Frc consts  --      2.0447                 1.5110                 2.0243
 IR Inten    --      5.4364                10.7911                59.1391

                     73                     74                     75
                      A                      A                      A
 Frequencies --   1286.7967              1290.8596              1326.8246
 Red. masses --      2.2478                 5.7631                 1.4588
 Frc consts  --      2.1930                 5.6580                 1.5131
 IR Inten    --     87.8985               334.4755                28.6196

                     76                     77                     78
                      A                      A                      A
 Frequencies --   1340.6446              1360.7996              1369.7669
 Red. masses --      1.4759                 2.6387                 1.3219
 Frc consts  --      1.5629                 2.8790                 1.4614
 IR Inten    --     13.2406                 0.0623                 2.7888

                     79                     80                     81
                      A                      A                      A
 Frequencies --   1405.2341              1448.2514              1454.1296
 Red. masses --      1.4672                 1.1048                 1.1359
 Frc consts  --      1.7070                 1.3653                 1.4151
 IR Inten    --      9.2602                34.1673                 1.4994

                     82                     83                     84
                      A                      A                      A
 Frequencies --   1463.1104              1471.0873              1477.0231
 Red. masses --      1.1094                 1.1556                 1.1860
 Frc consts  --      1.3993                 1.4735                 1.5244
 IR Inten    --     23.5465                 0.2618                46.8316

                     85                     86                     87
                      A                      A                      A
 Frequencies --   1486.3498              1498.8132              1503.5813
 Red. masses --      1.1205                 2.1537                 1.0471
 Frc consts  --      1.4585                 2.8506                 1.3947
 IR Inten    --      6.3743                 3.8081                10.5953

                     88                     89                     90
                      A                      A                      A
 Frequencies --   1506.0979              1513.7664              1515.8401
 Red. masses --      1.0991                 1.0551                 1.0464
 Frc consts  --      1.4689                 1.4245                 1.4166
 IR Inten    --      9.7832                29.1017                17.2945

                     91                     92                     93
                      A                      A                      A
 Frequencies --   1529.6040              1543.7336              1641.6984
 Red. masses --      1.0489                 2.2607                 5.5311
 Frc consts  --      1.4460                 3.1742                 8.7831
 IR Inten    --     17.5098                20.0880                 1.6854

                     94                     95                     96
                      A                      A                      A
 Frequencies --   1662.2759              3045.2608              3059.5951
 Red. masses --      5.6793                 1.0485                 1.0598
 Frc consts  --      9.2460                 5.7288                 5.8455
 IR Inten    --     10.6728                62.0357                14.9239

                     97                     98                     99
                      A                      A                      A
 Frequencies --   3060.8997              3073.4427              3100.4424
 Red. masses --      1.0439                 1.0593                 1.1020
 Frc consts  --      5.7625                 5.8953                 6.2415
 IR Inten    --     62.3790                59.3418                 2.5520

                    100                    101                    102
                      A                      A                      A
 Frequencies --   3119.1166              3123.5295              3139.5316
 Red. masses --      1.0971                 1.0648                 1.0899
 Frc consts  --      6.2886                 6.1208                 6.3293
 IR Inten    --     36.9601                29.6452                37.2946

                    103                    104                    105
                      A                      A                      A
 Frequencies --   3140.4038              3145.7017              3191.1883
 Red. masses --      1.0599                 1.0949                 1.0865
 Frc consts  --      6.1588                 6.3836                 6.5188
 IR Inten    --      6.2171                23.4409                16.3191

                    106                    107                    108
                      A                      A                      A
 Frequencies --   3191.8981              3193.0644              3195.0958
 Red. masses --      1.0880                 1.1106                 1.1026
 Frc consts  --      6.5307                 6.6713                 6.6318
 IR Inten    --     13.9132                 2.9385                 8.9089

                    109                    110                    111
                      A                      A                      A
 Frequencies --   3200.3815              3203.0617              3212.9286
 Red. masses --      1.1017                 1.0894                 1.0936
 Frc consts  --      6.6482                 6.5852                 6.6515
 IR Inten    --      6.7448                15.7787                71.4561

                    112                    113                    114
                      A                      A                      A
 Frequencies --   3214.0539              3223.5074              3474.9394
 Red. masses --      1.1082                 1.0978                 1.0751
 Frc consts  --      6.7447                 6.7208                 7.6490
 IR Inten    --      1.2844                32.2102                86.3824

 - Thermochemistry -
 -------------------
 Temperature   298.150 Kelvin.  Pressure   1.00000 Atm.
 Atom     1 has atomic number  8 and mass  15.99491

 Molecular mass:   316.09154 amu.
 Principal axes and moments of inertia in atomic units:
                           1         2         3
     Eigenvalues --  4800.20350********************
           X            0.99991   0.00355  -0.01276
           Y           -0.00366   0.99995  -0.00882
           Z            0.01272   0.00887   0.99988
 This molecule is an asymmetric top.
 Rotational symmetry number  1.
 Warning -- assumption of classical behavior for rotation
           may cause significant error
 Rotational temperatures (Kelvin)      0.01804     0.00817     0.00628
 Rotational constants (GHZ):           0.37597     0.17019     0.13085
 Zero-point vibrational energy     858081.3 (Joules/Mol)
                                  205.08636 (Kcal/Mol)
 Warning -- explicit consideration of  32 degrees of freedom as
           vibrations may cause significant error
 Vibrational temperatures:     16.21    23.67    31.03    48.02    61.90
          (Kelvin)             69.24   112.94   158.48   185.55   202.90
                              264.78   278.76   306.47   314.98   327.05
                              386.08   396.94   416.06   456.19   475.26
                              493.72   524.55   535.81   561.72   605.38
                              665.39   678.67   709.36   736.19   768.27
                              829.60   855.15   913.50   921.11   954.88
                              990.93  1032.16  1049.10  1099.54  1111.58
                             1148.69  1162.17  1211.57  1245.19  1248.65
                             1278.20  1341.59  1374.87  1389.41  1409.14
                             1424.88  1445.54  1462.51  1495.58  1518.28
                             1531.06  1538.77  1547.40  1558.81  1590.76
                             1616.35  1630.15  1637.55  1691.55  1707.36
                             1715.68  1734.81  1769.78  1772.79  1780.25
                             1787.12  1805.80  1851.41  1857.26  1909.00
                             1928.89  1957.89  1970.79  2021.82  2083.71
                             2092.17  2105.09  2116.57  2125.11  2138.53
                             2156.46  2163.32  2166.94  2177.97  2180.96
                             2200.76  2221.09  2362.04  2391.64  4381.45
                             4402.07  4403.95  4422.00  4460.85  4487.71
                             4494.06  4517.09  4518.34  4525.96  4591.41
                             4592.43  4594.11  4597.03  4604.64  4608.49
                             4622.69  4624.31  4637.91  4999.66

 Zero-point correction=                           0.326826 (Hartree/Particle)
 Thermal correction to Energy=                    0.347925
 Thermal correction to Enthalpy=                  0.348869
 Thermal correction to Gibbs Free Energy=         0.272527
 Sum of electronic and zero-point Energies=          -1638.530848
 Sum of electronic and thermal Energies=             -1638.509749
 Sum of electronic and thermal Enthalpies=           -1638.508805
 Sum of electronic and thermal Free Energies=        -1638.585147

                     E (Thermal)             CV                S
                      KCal/Mol        Cal/Mol-Kelvin    Cal/Mol-Kelvin
 Total                  218.326             78.768            160.675
 Electronic               0.000              0.000              0.000
 Translational            0.889              2.981             43.148
 Rotational               0.889              2.981             34.906
 Vibrational            216.549             72.806             82.621
 Vibration     1          0.593              1.987              7.774
 Vibration     2          0.593              1.986              7.022
 Vibration     3          0.593              1.985              6.484
 Vibration     4          0.594              1.983              5.618
 Vibration     5          0.595              1.980              5.115
 Vibration     6          0.595              1.978              4.893
 Vibration     7          0.600              1.964              3.928
 Vibration     8          0.606              1.941              3.266
 Vibration     9          0.611              1.924              2.961
 Vibration    10          0.615              1.912              2.790
 Vibration    11          0.631              1.862              2.287
 Vibration    12          0.635              1.849              2.192
 Vibration    13          0.644              1.821              2.018
 Vibration    14          0.647              1.812              1.968
 Vibration    15          0.651              1.799              1.900
 Vibration    16          0.673              1.731              1.607
 Vibration    17          0.678              1.718              1.559
 Vibration    18          0.686              1.694              1.479
 Vibration    19          0.704              1.641              1.325
 Vibration    20          0.713              1.615              1.259
 Vibration    21          0.722              1.589              1.197
 Vibration    22          0.738              1.545              1.103
 Vibration    23          0.744              1.529              1.070
 Vibration    24          0.758              1.491              0.999
 Vibration    25          0.783              1.425              0.889
 Vibration    26          0.820              1.333              0.759
 Vibration    27          0.829              1.313              0.733
 Vibration    28          0.849              1.265              0.676
 Vibration    29          0.867              1.224              0.630
 Vibration    30          0.889              1.175              0.578
 Vibration    31          0.933              1.082              0.492
 Vibration    32          0.952              1.044              0.459

                           ! Non-Optimized Parameters !
 Normal termination of Gaussian 16 at Mon Sep 21 07:33:53 2020.

 ----------------------------------------------------------------------
 #p b3lyp/6-31G(d) scrf=(iefpcm,read,solvent=water) geom=allcheck guess
 =read
 ----------------------------------------------------------------------

 Structure from the checkpoint file:  "SM37_m0.n.13.pdb.xyz.mst.n.w.chk"
 --------------------
 SM37_m0.n.13.pdb.xyz
 --------------------
 Charge =  0 Multiplicity = 1

 SCF Done:  E(RB3LYP) =  -1638.85767670     A.U. after    5 cycles
 Normal termination of Gaussian 16 at Mon Sep 21 07:34:32 2020.

 -----------------------------
 #p B3LYP/6-31G* geom=allcheck
 -----------------------------

 Structure from the checkpoint file:  "SM37_m0.n.13.pdb.xyz.mst.n.w.chk"
 --------------------
 SM37_m0.n.13.pdb.xyz
 --------------------
 Charge =  0 Multiplicity = 1

 SCF Done:  E(RB3LYP) =  -1638.82904247     A.U. after   15 cycles

 The electronic state is 1-A.
 Alpha  occ. eigenvalues --  -89.13550 -88.98476 -19.15063 -19.14923 -19.11196
 Alpha  occ. eigenvalues --  -14.38589 -14.38329 -10.27024 -10.23819 -10.23337
 Alpha  occ. eigenvalues --  -10.22542 -10.21625 -10.19794 -10.19341 -10.19100
 Alpha  occ. eigenvalues --  -10.18661 -10.18585 -10.18525 -10.18469 -10.18396
 Alpha  occ. eigenvalues --   -8.15797  -8.03286  -6.12271  -6.12226  -6.12192
 Alpha  occ. eigenvalues --   -5.99688  -5.99534  -5.99056  -1.12736  -1.00760
 Alpha  occ. eigenvalues --   -0.99927  -0.95556  -0.94343  -0.85336  -0.84334
 Alpha  occ. eigenvalues --   -0.78923  -0.74160  -0.73910  -0.73784  -0.71989
 Alpha  occ. eigenvalues --   -0.71030  -0.67255  -0.62918  -0.60658  -0.60129
 Alpha  occ. eigenvalues --   -0.57983  -0.56452  -0.55508  -0.52471  -0.51099
 Alpha  occ. eigenvalues --   -0.50461  -0.49294  -0.48452  -0.47868  -0.47470
 Alpha  occ. eigenvalues --   -0.45178  -0.44758  -0.44246  -0.43648  -0.42983
 Alpha  occ. eigenvalues --   -0.42441  -0.41909  -0.41570  -0.40812  -0.40371
 Alpha  occ. eigenvalues --   -0.40281  -0.40128  -0.37835  -0.37312  -0.35836
 Alpha  occ. eigenvalues --   -0.34940  -0.34752  -0.34619  -0.33883  -0.33353
 Alpha  occ. eigenvalues --   -0.32843  -0.32301  -0.30762  -0.28914  -0.26832
 Alpha  occ. eigenvalues --   -0.26113  -0.24524  -0.23877  -0.22528
 Alpha virt. eigenvalues --    0.00254   0.00326   0.00629   0.02125   0.03715
 Alpha virt. eigenvalues --    0.04890   0.06532   0.07391   0.08785   0.09342
 Alpha virt. eigenvalues --    0.09636   0.10301   0.10573   0.11057   0.11483

 Mulliken charges:
               1
     1  O   -0.563224
     2  S    1.350096
     3  N   -0.732025
     4  C    0.216375
     5  C   -0.507998
     6  S    0.757982
     7  O   -0.618701
     8  C   -0.475977
     9  C   -0.281342
    10  C   -0.378178
    11  C    0.174083
    12  C   -0.176530
    13  C   -0.127294
    14  C   -0.129812
    15  C   -0.127905
    16  C   -0.177757
    17  N   -0.496301
    18  C   -0.333710
    19  C   -0.325413
    20  O   -0.537244
    21  H    0.338774
    22  H    0.206133
    23  H    0.182218
    24  H    0.209321
    25  H    0.208857
    26  H    0.191362
    27  H    0.141341
    28  H    0.159705
    29  H    0.163540
    30  H    0.126511
    31  H    0.130554
    32  H    0.128331
    33  H    0.127584
    34  H    0.116560
    35  H    0.211420
    36  H    0.176617
    37  H    0.143527
    38  H    0.202451
    39  H    0.155139
    40  H    0.170928
 Sum of Mulliken charges =  -0.00000

 Dipole moment (field-independent basis, Debye):
    X=             -3.9808    Y=             -1.0947    Z=              3.9217  Tot=              5.6943
 Quadrupole moment (field-independent basis, Debye-Ang):
   XX=           -113.1084   YY=           -157.4684   ZZ=           -125.4851
   XY=             -8.4711   XZ=             -6.5772   YZ=             -0.9461

 Normal termination of Gaussian 16 at Mon Sep 21 07:35:34 2020.
 Gaussian 16:  ES64L-G16RevB.01 20-Dec-2017

 ----------------------------------------------------------------------
 #p mp2/aug-cc-pVDZ scf=(MaxCycle=2000,NoVarAcc,NoIncFock) maxdisk=120G
 B geom=allcheck
 ----------------------------------------------------------------------

 Structure from the checkpoint file:  "SM37_m0.n.13.pdb.xyz.mst.n.w.chk"
 --------------------
 SM37_m0.n.13.pdb.xyz
 --------------------
 Charge =  0 Multiplicity = 1

                         Standard orientation:
 ---------------------------------------------------------------------
 Center     Atomic      Atomic             Coordinates (Angstroms)
 Number     Number       Type             X           Y           Z
 ---------------------------------------------------------------------
      1          8           0       -2.028991   -0.869544   -1.708672
      2         16           0       -2.165663   -1.324643   -0.321455
      3          7           0       -1.739720   -0.005144    0.650535
      4          6           0       -0.550730    0.823982    0.306429
      5          6           0       -0.508964    2.005363    1.315250
      6         16           0       -0.703483    3.304491   -0.013310
      7          8           0        0.633269    3.988516   -0.282780
      8          6           0       -0.810766    1.696194   -0.950406
      9          6           0        0.748157   -0.006744    0.263691
     10          6           0        2.040618    0.779538   -0.028850
     11          6           0        3.254092   -0.124052   -0.022023
     12          6           0        3.683961   -0.755449   -1.196743
     13          6           0        4.785472   -1.612943   -1.188928
     14          6           0        5.478070   -1.852793   -0.000208
     15          6           0        5.061475   -1.228142    1.177398
     16          6           0        3.959081   -0.371136    1.164420
     17          7           0       -3.785482   -1.559251   -0.017988
     18          6           0       -4.132768   -2.182927    1.266356
     19          6           0       -4.672234   -0.461322   -0.417048
     20          8           0       -1.481877   -2.555102    0.099829
     21          1           0       -1.684819   -0.328657    1.620283
     22          1           0        0.432613    2.139634    1.848392
     23          1           0       -1.348083    2.039682    2.010787
     24          1           0       -0.041356    1.656786   -1.721693
     25          1           0       -1.794117    1.565987   -1.396645
     26          1           0        0.633717   -0.786459   -0.496745
     27          1           0        0.850660   -0.518417    1.227764
     28          1           0        2.170935    1.571733    0.714596
     29          1           0        1.959826    1.272726   -1.002359
     30          1           0        3.152314   -0.569121   -2.125756
     31          1           0        5.104479   -2.089065   -2.110529
     32          1           0        6.336669   -2.516476    0.007850
     33          1           0        5.596941   -1.403880    2.105180
     34          1           0        3.643677    0.115767    2.083159
     35          1           0       -3.454291   -3.011001    1.461944
     36          1           0       -5.149563   -2.569149    1.176603
     37          1           0       -4.098441   -1.468499    2.098571
     38          1           0       -4.386585   -0.106024   -1.405614
     39          1           0       -4.647286    0.370406    0.296253
     40          1           0       -5.686530   -0.861151   -0.466667
 ---------------------------------------------------------------------

 SCF Done:  E(RHF) =  -1632.40084942     A.U. after   17 cycles
