 Gaussian 16, Revision B.01,

 ----------------------------------------------------------------------
 #p b3lyp/6-31G(d) opt freq NoSymm scf=(MaxCycle=2000,NoVarAcc,NoIncFoc
 k) scrf=(iefpcm,read,solvent=water)
 ----------------------------------------------------------------------

 -------------------
 SM37_m0.n.2.pdb.xyz
 -------------------
 Symbolic Z-matrix:
 Charge =  0 Multiplicity = 1

 SCF Done:  E(RB3LYP) =  -1638.85541165     A.U. after   13 cycles
 SCF Done:  E(RB3LYP) =  -1638.85548504     A.U. after   10 cycles
 SCF Done:  E(RB3LYP) =  -1638.85487835     A.U. after   10 cycles
 SCF Done:  E(RB3LYP) =  -1638.85544524     A.U. after   10 cycles
 SCF Done:  E(RB3LYP) =  -1638.85550814     A.U. after    9 cycles
 SCF Done:  E(RB3LYP) =  -1638.85545873     A.U. after    9 cycles
 SCF Done:  E(RB3LYP) =  -1638.85546891     A.U. after    9 cycles
 SCF Done:  E(RB3LYP) =  -1638.85550661     A.U. after    9 cycles
 SCF Done:  E(RB3LYP) =  -1638.85551072     A.U. after    8 cycles
 SCF Done:  E(RB3LYP) =  -1638.85548884     A.U. after    9 cycles
 SCF Done:  E(RB3LYP) =  -1638.85551003     A.U. after    9 cycles
 SCF Done:  E(RB3LYP) =  -1638.85551116     A.U. after    8 cycles
 SCF Done:  E(RB3LYP) =  -1638.85550311     A.U. after    9 cycles
 SCF Done:  E(RB3LYP) =  -1638.85551172     A.U. after    8 cycles
 SCF Done:  E(RB3LYP) =  -1638.85551489     A.U. after    7 cycles
 SCF Done:  E(RB3LYP) =  -1638.85551825     A.U. after    7 cycles
 Optimization completed.
    -- Stationary point found.
 Normal termination of Gaussian 16 at Mon Sep 21 06:55:08 2020.

 --------------------------------------------------------------------
 #P Geom=AllCheck Guess=TCheck SCRF=Check GenChk RB3LYP/6-31G(d) Freq
 --------------------------------------------------------------------

 Structure from the checkpoint file:  "SM37_m0.n.2.pdb.xyz.mst.n.w.chk"
 -------------------
 SM37_m0.n.2.pdb.xyz
 -------------------
 Charge =  0 Multiplicity = 1

 SCF Done:  E(RB3LYP) =  -1638.85551825     A.U. after    1 cycles

  Exact polarizability: 274.904 -42.816 223.234  -3.530  11.458 246.607
 Approx polarizability: 299.592 -51.743 248.856  -8.334  14.389 292.425

                      1                      2                      3
                      A                      A                      A
 Frequencies --     15.9240                32.4214                54.9253
 Red. masses --      4.6501                 4.4684                 5.1797
 Frc consts  --      0.0007                 0.0028                 0.0092
 IR Inten    --      3.5992                 0.6545                 0.3626

                      4                      5                      6
                      A                      A                      A
 Frequencies --     58.7658                73.4757                82.9167
 Red. masses --      4.8135                 3.3220                 3.5536
 Frc consts  --      0.0098                 0.0106                 0.0144
 IR Inten    --      7.1780                 0.7004                 0.9353

                      7                      8                      9
                      A                      A                      A
 Frequencies --     89.2034               115.3261               125.7009
 Red. masses --      6.3751                 7.0720                 3.9342
 Frc consts  --      0.0299                 0.0554                 0.0366
 IR Inten    --      6.1722                 5.0451                 7.9812

                     10                     11                     12
                      A                      A                      A
 Frequencies --    185.0590               197.1958               210.6066
 Red. masses --      5.4754                 2.2523                 1.2217
 Frc consts  --      0.1105                 0.0516                 0.0319
 IR Inten    --      8.6189                 0.9519                 1.0805

                     13                     14                     15
                      A                      A                      A
 Frequencies --    222.1141               224.3890               249.0109
 Red. masses --      1.3175                 4.3149                 6.2652
 Frc consts  --      0.0383                 0.1280                 0.2289
 IR Inten    --      1.4276                 7.9696                 6.7400

                     16                     17                     18
                      A                      A                      A
 Frequencies --    264.4712               283.2541               312.6023
 Red. masses --      3.5931                 3.6317                 3.5284
 Frc consts  --      0.1481                 0.1717                 0.2031
 IR Inten    --      3.6670                 3.5748                13.8186

                     19                     20                     21
                      A                      A                      A
 Frequencies --    332.8813               340.6679               351.2480
 Red. masses --      2.1383                 3.2131                 3.0793
 Frc consts  --      0.1396                 0.2197                 0.2238
 IR Inten    --      3.6688                21.6756                 0.5491

                     22                     23                     24
                      A                      A                      A
 Frequencies --    366.6263               386.9962               394.5926
 Red. masses --      2.6822                 3.7803                 2.3894
 Frc consts  --      0.2124                 0.3336                 0.2192
 IR Inten    --      4.5889                 8.2700                13.0151

                     25                     26                     27
                      A                      A                      A
 Frequencies --    421.2561               467.4282               481.5290
 Red. masses --      3.0128                 4.5616                 3.5419
 Frc consts  --      0.3150                 0.5872                 0.4839
 IR Inten    --      0.4224                 1.6457                20.0480

                     28                     29                     30
                      A                      A                      A
 Frequencies --    491.1150               509.6114               537.5836
 Red. masses --      4.2293                 4.2032                 3.7099
 Frc consts  --      0.6010                 0.6431                 0.6317
 IR Inten    --     24.5657                10.8188                68.3900

                     31                     32                     33
                      A                      A                      A
 Frequencies --    561.3585               578.3707               604.6879
 Red. masses --      4.4937                 2.7300                 4.0085
 Frc consts  --      0.8343                 0.5380                 0.8636
 IR Inten    --    119.0774                15.9426               148.7110

                     34                     35                     36
                      A                      A                      A
 Frequencies --    634.6101               643.1841               679.7049
 Red. masses --      6.2979                 3.9245                 6.3392
 Frc consts  --      1.4944                 0.9565                 1.7255
 IR Inten    --      0.5968                15.2346               231.4601

                     37                     38                     39
                      A                      A                      A
 Frequencies --    717.2807               728.7758               741.6576
 Red. masses --      2.2856                 3.0963                 2.1743
 Frc consts  --      0.6928                 0.9689                 0.7047
 IR Inten    --     16.5533                26.4459                29.4765

                     40                     41                     42
                      A                      A                      A
 Frequencies --    773.3811               794.3667               828.2757
 Red. masses --      1.8432                 3.7526                 2.1408
 Frc consts  --      0.6495                 1.3952                 0.8653
 IR Inten    --     48.0928                 8.9493               135.8777

                     43                     44                     45
                      A                      A                      A
 Frequencies --    857.7517               869.7605               898.0992
 Red. masses --      2.0682                 1.2496                 2.5999
 Frc consts  --      0.8965                 0.5569                 1.2355
 IR Inten    --     88.1771                 0.2807                82.5498

                     46                     47                     48
                      A                      A                      A
 Frequencies --    920.4510               935.6106               950.2347
 Red. masses --      1.4815                 2.1413                 3.0549
 Frc consts  --      0.7395                 1.1044                 1.6252
 IR Inten    --      9.1730               104.2911               151.6766

                     49                     50                     51
                      A                      A                      A
 Frequencies --    957.1671               981.1504               991.2373
 Red. masses --      2.1222                 1.3500                 2.3515
 Frc consts  --      1.1456                 0.7657                 1.3613
 IR Inten    --     28.9721                 0.4747                24.8491

                     52                     53                     54
                      A                      A                      A
 Frequencies --   1004.6095              1016.5598              1035.9294
 Red. masses --      1.2518                 6.1452                 3.6964
 Frc consts  --      0.7444                 3.7415                 2.3372
 IR Inten    --      0.5703                 0.1933                82.9576

                     55                     56                     57
                      A                      A                      A
 Frequencies --   1058.0402              1067.7316              1068.9062
 Red. masses --      2.2397                 1.5620                 1.3939
 Frc consts  --      1.4772                 1.0492                 0.9383
 IR Inten    --      5.7382                20.5286                29.1600

                     58                     59                     60
                      A                      A                      A
 Frequencies --   1078.3866              1094.0429              1103.9593
 Red. masses --      2.5340                 1.6929                 5.1275
 Frc consts  --      1.7362                 1.1939                 3.6818
 IR Inten    --    126.9588                68.1241               194.6190

                     61                     62                     63
                      A                      A                      A
 Frequencies --   1121.1476              1130.4737              1143.1838
 Red. masses --      2.3947                 1.2217                 2.1451
 Frc consts  --      1.7735                 0.9199                 1.6517
 IR Inten    --     72.0809                 2.2393                15.6584

                     64                     65                     66
                      A                      A                      A
 Frequencies --   1179.4350              1189.1939              1208.3937
 Red. masses --      1.4053                 1.0930                 1.2861
 Frc consts  --      1.1518                 0.9107                 1.1065
 IR Inten    --      1.6274                 0.1681                 5.2129

                     67                     68                     69
                      A                      A                      A
 Frequencies --   1209.8231              1221.7467              1227.1622
 Red. masses --      1.1359                 1.4177                 3.7473
 Frc consts  --      0.9796                 1.2468                 3.3249
 IR Inten    --      0.4649                 6.9080                23.6928

                     70                     71                     72
                      A                      A                      A
 Frequencies --   1235.9482              1249.4764              1275.8616
 Red. masses --      2.4843                 1.3442                 1.9519
 Frc consts  --      2.2359                 1.2364                 1.8720
 IR Inten    --      0.4530                20.3428                 6.1915

                     73                     74                     75
                      A                      A                      A
 Frequencies --   1277.0674              1298.8170              1328.3668
 Red. masses --      2.0031                 9.7845                 1.3637
 Frc consts  --      1.9248                 9.7249                 1.4178
 IR Inten    --     57.9311               378.8518                46.0588

                     76                     77                     78
                      A                      A                      A
 Frequencies --   1356.6532              1364.5840              1399.6005
 Red. masses --      2.5247                 1.7693                 1.3802
 Frc consts  --      2.7378                 1.9411                 1.5929
 IR Inten    --      5.6580                 0.5137                 5.3605

                     79                     80                     81
                      A                      A                      A
 Frequencies --   1411.3816              1441.9973              1451.6679
 Red. masses --      1.3125                 1.2960                 1.1769
 Frc consts  --      1.5404                 1.5877                 1.4612
 IR Inten    --     10.9626                59.2903                17.4483

                     82                     83                     84
                      A                      A                      A
 Frequencies --   1461.8961              1470.7660              1487.4834
 Red. masses --      1.1009                 1.1558                 1.1333
 Frc consts  --      1.3862                 1.4731                 1.4774
 IR Inten    --     16.0151                 5.1102                 9.9990

                     85                     86                     87
                      A                      A                      A
 Frequencies --   1500.6810              1503.1219              1509.2295
 Red. masses --      2.0303                 1.0500                 1.0911
 Frc consts  --      2.6940                 1.3977                 1.4643
 IR Inten    --      3.8530                10.1256                14.6711

                     88                     89                     90
                      A                      A                      A
 Frequencies --   1513.7556              1515.3857              1519.1652
 Red. masses --      1.1014                 1.0512                 1.0494
 Frc consts  --      1.4870                 1.4223                 1.4269
 IR Inten    --      6.4128                18.1397                10.4124

                     91                     92                     93
                      A                      A                      A
 Frequencies --   1531.7785              1544.7278              1642.1868
 Red. masses --      1.0477                 2.2361                 5.4691
 Frc consts  --      1.4483                 3.1438                 8.6898
 IR Inten    --     36.8961                17.9990                 1.7611

                     94                     95                     96
                      A                      A                      A
 Frequencies --   1663.7462              3044.6231              3049.5159
 Red. masses --      5.6690                 1.0486                 1.0484
 Frc consts  --      9.2455                 5.7271                 5.7444
 IR Inten    --     10.2236                49.3969                77.9693

                     97                     98                     99
                      A                      A                      A
 Frequencies --   3060.6755              3075.6774              3100.8364
 Red. masses --      1.0624                 1.0616                 1.0994
 Frc consts  --      5.8636                 5.9172                 6.2284
 IR Inten    --     44.3569                11.0941                39.9686

                    100                    101                    102
                      A                      A                      A
 Frequencies --   3122.2824              3125.8786              3136.3643
 Red. masses --      1.1026                 1.0588                 1.0580
 Frc consts  --      6.3332                 6.0956                 6.1316
 IR Inten    --     21.8959                14.2617                 5.1894

                    103                    104                    105
                      A                      A                      A
 Frequencies --   3142.6861              3145.4391              3190.5901
 Red. masses --      1.0901                 1.0876                 1.0866
 Frc consts  --      6.3435                 6.3402                 6.5172
 IR Inten    --     34.9263                24.4881                18.8378

                    106                    107                    108
                      A                      A                      A
 Frequencies --   3191.4385              3197.5645              3199.3411
 Red. masses --      1.0879                 1.1025                 1.1027
 Frc consts  --      6.5285                 6.6416                 6.6499
 IR Inten    --     13.6092                 8.7824                 8.7696

                    109                    110                    111
                      A                      A                      A
 Frequencies --   3201.3242              3204.8636              3209.9517
 Red. masses --      1.1090                 1.0895                 1.1103
 Frc consts  --      6.6963                 6.5932                 6.7406
 IR Inten    --      4.1550                11.2355                 1.7884

                    112                    113                    114
                      A                      A                      A
 Frequencies --   3212.2039              3225.1764              3513.5643
 Red. masses --      1.0936                 1.0976                 1.0749
 Frc consts  --      6.6485                 6.7267                 7.8182
 IR Inten    --     70.9530                35.3624               139.1896

 - Thermochemistry -
 -------------------
 Temperature   298.150 Kelvin.  Pressure   1.00000 Atm.
 Atom     1 has atomic number  8 and mass  15.99491

 Molecular mass:   316.09154 amu.
 Principal axes and moments of inertia in atomic units:
                           1         2         3
     Eigenvalues --  5092.957897278.40022**********
           X            0.99778   0.06659   0.00146
           Y           -0.06661   0.99772   0.01115
           Z           -0.00071  -0.01122   0.99994
 This molecule is an asymmetric top.
 Rotational symmetry number  1.
 Warning -- assumption of classical behavior for rotation
           may cause significant error
 Rotational temperatures (Kelvin)      0.01701     0.01190     0.00816
 Rotational constants (GHZ):           0.35436     0.24796     0.17012
 Zero-point vibrational energy     861252.0 (Joules/Mol)
                                  205.84416 (Kcal/Mol)
 Warning -- explicit consideration of  33 degrees of freedom as
           vibrations may cause significant error
 Vibrational temperatures:     22.91    46.65    79.03    84.55   105.72
          (Kelvin)            119.30   128.34   165.93   180.86   266.26
                              283.72   303.02   319.57   322.85   358.27
                              380.52   407.54   449.77   478.94   490.15
                              505.37   527.49   556.80   567.73   606.09
                              672.52   692.81   706.60   733.22   773.46
                              807.67   832.15   870.01   913.06   925.40
                              977.94  1032.01  1048.55  1067.08  1112.72
                             1142.92  1191.70  1234.11  1251.39  1292.16
                             1324.32  1346.14  1367.18  1377.15  1411.66
                             1426.17  1445.41  1462.60  1490.47  1522.28
                             1536.23  1537.92  1551.56  1574.08  1588.35
                             1613.08  1626.50  1644.79  1696.94  1710.98
                             1738.61  1740.67  1757.82  1765.61  1778.25
                             1797.72  1835.68  1837.42  1868.71  1911.22
                             1951.92  1963.33  2013.71  2030.66  2074.71
                             2088.63  2103.34  2116.10  2140.16  2159.15
                             2162.66  2171.44  2177.96  2180.30  2185.74
                             2203.89  2222.52  2362.74  2393.76  4380.53
                             4387.57  4403.63  4425.21  4461.41  4492.27
                             4497.44  4512.53  4521.62  4525.59  4590.55
                             4591.77  4600.58  4603.14  4605.99  4611.08
                             4618.40  4621.64  4640.31  5055.24

 Zero-point correction=                           0.328034 (Hartree/Particle)
 Thermal correction to Energy=                    0.348552
 Thermal correction to Enthalpy=                  0.349497
 Thermal correction to Gibbs Free Energy=         0.277628
 Sum of electronic and zero-point Energies=          -1638.527485
 Sum of electronic and thermal Energies=             -1638.506966
 Sum of electronic and thermal Enthalpies=           -1638.506022
 Sum of electronic and thermal Free Energies=        -1638.577890

                     E (Thermal)             CV                S
                      KCal/Mol        Cal/Mol-Kelvin    Cal/Mol-Kelvin
 Total                  218.720             78.400            151.260
 Electronic               0.000              0.000              0.000
 Translational            0.889              2.981             43.148
 Rotational               0.889              2.981             34.330
 Vibrational            216.943             72.438             73.782
 Vibration     1          0.593              1.986              7.087
 Vibration     2          0.594              1.983              5.675
 Vibration     3          0.596              1.976              4.632
 Vibration     4          0.596              1.974              4.498
 Vibration     5          0.599              1.967              4.058
 Vibration     6          0.600              1.961              3.821
 Vibration     7          0.602              1.957              3.677
 Vibration     8          0.608              1.937              3.177
 Vibration     9          0.611              1.927              3.011
 Vibration    10          0.631              1.860              2.277
 Vibration    11          0.637              1.844              2.159
 Vibration    12          0.643              1.825              2.038
 Vibration    13          0.648              1.807              1.942
 Vibration    14          0.649              1.804              1.923
 Vibration    15          0.662              1.764              1.738
 Vibration    16          0.671              1.738              1.632
 Vibration    17          0.682              1.705              1.514
 Vibration    18          0.701              1.650              1.349
 Vibration    19          0.715              1.610              1.246
 Vibration    20          0.720              1.594              1.209
 Vibration    21          0.728              1.573              1.161
 Vibration    22          0.740              1.541              1.094
 Vibration    23          0.755              1.498              1.012
 Vibration    24          0.762              1.482              0.983
 Vibration    25          0.784              1.424              0.888
 Vibration    26          0.825              1.322              0.745
 Vibration    27          0.838              1.291              0.706
 Vibration    28          0.847              1.270              0.681
 Vibration    29          0.865              1.229              0.635
 Vibration    30          0.893              1.167              0.571
 Vibration    31          0.917              1.115              0.521
 Vibration    32          0.935              1.078              0.488
 Vibration    33          0.963              1.022              0.442

 Optimization completed.
    -- Stationary point found.
 Normal termination of Gaussian 16 at Mon Sep 21 07:13:12 2020.

 ----------------------------------------------------------------------
 #p b3lyp/6-31G(d) scrf=(iefpcm,read,solvent=water) geom=allcheck guess
 =read
 ----------------------------------------------------------------------

 Structure from the checkpoint file:  "SM37_m0.n.2.pdb.xyz.mst.n.w.chk"
 -------------------
 SM37_m0.n.2.pdb.xyz
 -------------------
 Charge =  0 Multiplicity = 1

 SCF Done:  E(RB3LYP) =  -1638.85549052     A.U. after    6 cycles
 Normal termination of Gaussian 16 at Mon Sep 21 07:14:05 2020.

 -----------------------------
 #p B3LYP/6-31G* geom=allcheck
 -----------------------------

 Structure from the checkpoint file:  "SM37_m0.n.2.pdb.xyz.mst.n.w.chk"
 -------------------
 SM37_m0.n.2.pdb.xyz
 -------------------
 Charge =  0 Multiplicity = 1

 SCF Done:  E(RB3LYP) =  -1638.82814157     A.U. after   15 cycles

 The electronic state is 1-A.
 Alpha  occ. eigenvalues --  -89.12982 -88.98777 -19.14680 -19.14266 -19.11466
 Alpha  occ. eigenvalues --  -14.37825 -14.37441 -10.26800 -10.23057 -10.22966
 Alpha  occ. eigenvalues --  -10.22569 -10.22092 -10.19596 -10.19554 -10.19194
 Alpha  occ. eigenvalues --  -10.18948 -10.18866 -10.18725 -10.18602 -10.18497
 Alpha  occ. eigenvalues --   -8.15206  -8.03585  -6.11689  -6.11626  -6.11605
 Alpha  occ. eigenvalues --   -5.99985  -5.99825  -5.99366  -1.12150  -1.00378
 Alpha  occ. eigenvalues --   -1.00268  -0.94667  -0.93667  -0.85427  -0.84720
 Alpha  occ. eigenvalues --   -0.78926  -0.74184  -0.73637  -0.73489  -0.71377
 Alpha  occ. eigenvalues --   -0.70899  -0.67470  -0.63177  -0.60463  -0.60371
 Alpha  occ. eigenvalues --   -0.58070  -0.56315  -0.54663  -0.52328  -0.51127
 Alpha  occ. eigenvalues --   -0.50644  -0.49255  -0.48547  -0.47498  -0.46167
 Alpha  occ. eigenvalues --   -0.45470  -0.44538  -0.44110  -0.43450  -0.43097
 Alpha  occ. eigenvalues --   -0.42406  -0.41892  -0.41827  -0.40834  -0.39936
 Alpha  occ. eigenvalues --   -0.39564  -0.39326  -0.38204  -0.37777  -0.35955
 Alpha  occ. eigenvalues --   -0.35368  -0.35072  -0.34243  -0.33640  -0.33398
 Alpha  occ. eigenvalues --   -0.32218  -0.31639  -0.30225  -0.28866  -0.26255
 Alpha  occ. eigenvalues --   -0.25967  -0.24743  -0.24000  -0.22797
 Alpha virt. eigenvalues --   -0.00334  -0.00028   0.00067   0.03002   0.04590
 Alpha virt. eigenvalues --    0.05716   0.06849   0.08417   0.08628   0.09379
 Alpha virt. eigenvalues --    0.10090   0.10308   0.11116   0.11361   0.11792

 Mulliken charges:
               1
     1  O   -0.566425
     2  S    1.361524
     3  N   -0.758517
     4  C    0.219613
     5  C   -0.492973
     6  S    0.742665
     7  O   -0.616641
     8  C   -0.466736
     9  C   -0.288854
    10  C   -0.376868
    11  C    0.187735
    12  C   -0.168234
    13  C   -0.112821
    14  C   -0.124066
    15  C   -0.118843
    16  C   -0.215529
    17  N   -0.482103
    18  C   -0.335622
    19  C   -0.334998
    20  O   -0.531714
    21  H    0.357095
    22  H    0.201491
    23  H    0.183955
    24  H    0.217857
    25  H    0.182570
    26  H    0.182143
    27  H    0.177905
    28  H    0.139087
    29  H    0.164902
    30  H    0.128292
    31  H    0.133048
    32  H    0.129465
    33  H    0.125800
    34  H    0.110901
    35  H    0.206993
    36  H    0.170580
    37  H    0.146404
    38  H    0.203768
    39  H    0.146313
    40  H    0.170836
 Sum of Mulliken charges =  -0.00000

 Dipole moment (field-independent basis, Debye):
    X=             -0.1072    Y=              2.7164    Z=              4.3311  Tot=              5.1136
 Quadrupole moment (field-independent basis, Debye-Ang):
   XX=           -138.9253   YY=           -136.3836   ZZ=           -128.6564
   XY=             16.4946   XZ=              2.4121   YZ=              6.0383

 Normal termination of Gaussian 16 at Mon Sep 21 07:15:17 2020.
 Gaussian 16:  ES64L-G16RevB.01 20-Dec-2017

 ----------------------------------------------------------------------
 #p mp2/aug-cc-pVDZ scf=(MaxCycle=2000,NoVarAcc,NoIncFock) maxdisk=120G
 B geom=allcheck
 ----------------------------------------------------------------------

 Structure from the checkpoint file:  "SM37_m0.n.2.pdb.xyz.mst.n.w.chk"
 -------------------
 SM37_m0.n.2.pdb.xyz
 -------------------
 Charge =  0 Multiplicity = 1

                         Standard orientation:
 ---------------------------------------------------------------------
 Center     Atomic      Atomic             Coordinates (Angstroms)
 Number     Number       Type             X           Y           Z
 ---------------------------------------------------------------------
      1          8           0        0.547936    1.510010   -1.816576
      2         16           0       -0.154023    1.708928   -0.544538
      3          7           0        0.398235    0.537955    0.531770
      4          6           0        1.218127   -0.617965    0.093784
      5          6           0        1.914849   -1.260998    1.320951
      6         16           0        3.537113   -1.439340    0.409621
      7          8           0        3.578159   -2.781224   -0.316861
      8          6           0        2.545107   -0.212166   -0.589901
      9          6           0        0.489256   -1.679174   -0.760441
     10          6           0       -0.643302   -2.483963   -0.087570
     11          6           0       -1.993125   -1.808136    0.028340
     12          6           0       -2.773715   -1.563064   -1.111231
     13          6           0       -4.028378   -0.963332   -1.004889
     14          6           0       -4.530427   -0.600121    0.247779
     15          6           0       -3.768664   -0.846877    1.390481
     16          6           0       -2.514026   -1.449175    1.277303
     17          7           0        0.352295    3.194365    0.050490
     18          6           0       -0.246274    3.577577    1.336894
     19          6           0        1.800788    3.420196   -0.001887
     20          8           0       -1.620103    1.744365   -0.498550
     21          1           0       -0.356103    0.273995    1.166373
     22          1           0        1.525897   -2.210293    1.687468
     23          1           0        2.063216   -0.560965    2.145222
     24          1           0        2.627482   -0.368974   -1.664041
     25          1           0        2.890491    0.785900   -0.318704
     26          1           0        1.263001   -2.390957   -1.065956
     27          1           0        0.124558   -1.198374   -1.673697
     28          1           0       -0.322138   -2.809437    0.907560
     29          1           0       -0.765799   -3.399022   -0.677814
     30          1           0       -2.397250   -1.849160   -2.089334
     31          1           0       -4.617282   -0.784006   -1.899052
     32          1           0       -5.507346   -0.135294    0.330770
     33          1           0       -4.150353   -0.576905    2.369968
     34          1           0       -1.929618   -1.650139    2.170810
     35          1           0       -1.324858    3.438749    1.294466
     36          1           0       -0.031573    4.635854    1.492784
     37          1           0        0.169573    3.004280    2.174967
     38          1           0        2.167674    3.207699   -1.004241
     39          1           0        2.344930    2.811205    0.731992
     40          1           0        1.973117    4.474173    0.221532
 ---------------------------------------------------------------------

 SCF Done:  E(RHF) =  -1632.39690902     A.U. after   18 cycles
