 Gaussian 16, Revision B.01,

 ----------------------------------------------------------------------
 #p b3lyp/6-31G(d) opt freq NoSymm scf=(MaxCycle=2000,NoVarAcc,NoIncFoc
 k) scrf=(iefpcm,read,solvent=water) MaxDisk=20GB
 ----------------------------------------------------------------------

 -------------------
 SM37_m0.n.8.pdb.xyz
 -------------------
 Symbolic Z-matrix:
 Charge =  0 Multiplicity = 1

 SCF Done:  E(RB3LYP) =  -1638.86016889     A.U. after   13 cycles
 SCF Done:  E(RB3LYP) =  -1638.85975837     A.U. after   10 cycles
 SCF Done:  E(RB3LYP) =  -1638.86004903     A.U. after   10 cycles
 SCF Done:  E(RB3LYP) =  -1638.86020616     A.U. after   10 cycles
 SCF Done:  E(RB3LYP) =  -1638.85990727     A.U. after   10 cycles
 SCF Done:  E(RB3LYP) =  -1638.85953345     A.U. after   10 cycles
 SCF Done:  E(RB3LYP) =  -1638.86018577     A.U. after   11 cycles
 SCF Done:  E(RB3LYP) =  -1638.85996474     A.U. after   10 cycles
 SCF Done:  E(RB3LYP) =  -1638.86019694     A.U. after   10 cycles
 SCF Done:  E(RB3LYP) =  -1638.86020583     A.U. after    9 cycles
 SCF Done:  E(RB3LYP) =  -1638.85976288     A.U. after    9 cycles
 SCF Done:  E(RB3LYP) =  -1638.85978582     A.U. after    8 cycles
 SCF Done:  E(RB3LYP) =  -1638.85978005     A.U. after    8 cycles
 SCF Done:  E(RB3LYP) =  -1638.85978846     A.U. after    8 cycles
 SCF Done:  E(RB3LYP) =  -1638.85978869     A.U. after    7 cycles
 SCF Done:  E(RB3LYP) =  -1638.85978762     A.U. after    7 cycles
 Optimization completed.
    -- Stationary point found.
 Normal termination of Gaussian 16 at Tue Sep 15 08:45:45 2020.

 --------------------------------------------------------------------
 #P Geom=AllCheck Guess=TCheck SCRF=Check GenChk RB3LYP/6-31G(d) Freq
 --------------------------------------------------------------------

 Structure from the checkpoint file:  "SM37_m0.n.8.pdb.xyz.mst.n.w.chk"
 -------------------
 SM37_m0.n.8.pdb.xyz
 -------------------
 Charge =  0 Multiplicity = 1

 SCF Done:  E(RB3LYP) =  -1638.85978762     A.U. after    1 cycles

  Exact polarizability: 285.807 -10.170 238.551   3.489  37.986 221.012
 Approx polarizability: 309.870 -14.802 273.041  -1.325  50.212 254.533

                      1                      2                      3
                      A                      A                      A
 Frequencies --      9.4901                16.2338                22.5474
 Red. masses --      5.0820                 3.8001                 4.8653
 Frc consts  --      0.0003                 0.0006                 0.0015
 IR Inten    --      2.9700                 0.0459                 0.7175

                      4                      5                      6
                      A                      A                      A
 Frequencies --     48.2962                53.8144                71.5639
 Red. masses --      3.7098                 3.5765                 5.5809
 Frc consts  --      0.0051                 0.0061                 0.0168
 IR Inten    --      1.5065                 0.2775                12.2893

                      7                      8                      9
                      A                      A                      A
 Frequencies --     88.3906               100.9164               156.4793
 Red. masses --      4.3655                 4.4239                 4.8028
 Frc consts  --      0.0201                 0.0265                 0.0693
 IR Inten    --      5.2725                 0.2315                14.9196

                     10                     11                     12
                      A                      A                      A
 Frequencies --    165.9550               174.3073               184.1679
 Red. masses --      3.0762                 4.9559                 1.0848
 Frc consts  --      0.0499                 0.0887                 0.0217
 IR Inten    --      7.4130                 8.4115                 1.3399

                     13                     14                     15
                      A                      A                      A
 Frequencies --    197.2017               229.3447               239.7823
 Red. masses --      1.8386                 2.6455                 4.5934
 Frc consts  --      0.0421                 0.0820                 0.1556
 IR Inten    --      3.5404                 5.0635                10.8888

                     16                     17                     18
                      A                      A                      A
 Frequencies --    259.2844               280.1566               296.0552
 Red. masses --      4.3337                 3.4184                 2.4656
 Frc consts  --      0.1717                 0.1581                 0.1273
 IR Inten    --      1.7190                 0.6543                 1.2101

                     19                     20                     21
                      A                      A                      A
 Frequencies --    324.8829               339.5538               353.5601
 Red. masses --      2.7994                 3.0744                 3.1573
 Frc consts  --      0.1741                 0.2088                 0.2325
 IR Inten    --     13.4056                 0.2922                14.2530

                     22                     23                     24
                      A                      A                      A
 Frequencies --    366.3360               386.7543               418.2680
 Red. masses --      2.8914                 2.9322                 2.9827
 Frc consts  --      0.2286                 0.2584                 0.3074
 IR Inten    --      7.5517                 2.0604                 0.0655

                     25                     26                     27
                      A                      A                      A
 Frequencies --    427.9708               452.4396               466.6930
 Red. masses --      4.1834                 2.8269                 5.0198
 Frc consts  --      0.4514                 0.3409                 0.6442
 IR Inten    --      4.9670                30.8479                19.6502

                     28                     29                     30
                      A                      A                      A
 Frequencies --    494.4014               518.1376               533.4862
 Red. masses --      2.4247                 3.1191                 3.7119
 Frc consts  --      0.3492                 0.4934                 0.6224
 IR Inten    --     91.8848                56.9275                90.1702

                     31                     32                     33
                      A                      A                      A
 Frequencies --    561.2324               596.1945               611.3447
 Red. masses --      6.9809                 4.1744                 4.4367
 Frc consts  --      1.2955                 0.8742                 0.9770
 IR Inten    --     66.1794                31.2618                59.1435

                     34                     35                     36
                      A                      A                      A
 Frequencies --    634.3864               638.0417               670.0116
 Red. masses --      6.3324                 4.3942                 5.6170
 Frc consts  --      1.5015                 1.0540                 1.4857
 IR Inten    --      0.3222                15.0868               126.9416

                     37                     38                     39
                      A                      A                      A
 Frequencies --    716.7314               717.6002               767.9645
 Red. masses --      3.2353                 1.9702                 1.7745
 Frc consts  --      0.9792                 0.5978                 0.6166
 IR Inten    --     11.8301                30.8798                59.9040

                     40                     41                     42
                      A                      A                      A
 Frequencies --    788.6442               805.2342               828.3389
 Red. masses --      1.3797                 3.2507                 1.6527
 Frc consts  --      0.5056                 1.2419                 0.6681
 IR Inten    --     23.7154                 1.4248                14.7781

                     43                     44                     45
                      A                      A                      A
 Frequencies --    837.5710               866.9178               894.5100
 Red. masses --      3.7720                 1.2489                 2.8059
 Frc consts  --      1.5591                 0.5530                 1.3228
 IR Inten    --     28.9512                 0.0679               103.2957

                     46                     47                     48
                      A                      A                      A
 Frequencies --    913.1660               934.3575               947.5929
 Red. masses --      2.7842                 1.4802                 3.1601
 Frc consts  --      1.3679                 0.7614                 1.6718
 IR Inten    --    159.7712                 5.7696               224.9533

                     49                     50                     51
                      A                      A                      A
 Frequencies --    977.0052               978.4176               999.4041
 Red. masses --      1.9499                 1.4461                 1.9783
 Frc consts  --      1.0966                 0.8156                 1.1642
 IR Inten    --     94.6488                17.5058                23.3855

                     52                     53                     54
                      A                      A                      A
 Frequencies --   1006.0280              1016.4438              1038.0623
 Red. masses --      1.2602                 6.1687                 3.6074
 Frc consts  --      0.7515                 3.7550                 2.2903
 IR Inten    --      0.2415                 0.1484                 8.8719

                     55                     56                     57
                      A                      A                      A
 Frequencies --   1054.3282              1054.9737              1063.9502
 Red. masses --      1.8874                 1.4181                 2.9547
 Frc consts  --      1.2361                 0.9299                 1.9706
 IR Inten    --     10.2665                 0.9621               256.1074

                     58                     59                     60
                      A                      A                      A
 Frequencies --   1071.1039              1089.8329              1096.9548
 Red. masses --      1.5728                 2.4376                 3.1096
 Frc consts  --      1.0632                 1.7058                 2.2046
 IR Inten    --     20.2985               122.0089               147.0868

                     61                     62                     63
                      A                      A                      A
 Frequencies --   1108.5683              1128.6165              1139.1278
 Red. masses --      3.7137                 1.2305                 1.6022
 Frc consts  --      2.6889                 0.9234                 1.2249
 IR Inten    --     37.8233                 2.8222                 6.0549

                     64                     65                     66
                      A                      A                      A
 Frequencies --   1179.5887              1186.0205              1190.7473
 Red. masses --      1.3775                 1.0974                 1.3043
 Frc consts  --      1.1292                 0.9095                 1.0896
 IR Inten    --      4.6091                 0.0500                 0.3063

                     67                     68                     69
                      A                      A                      A
 Frequencies --   1201.3543              1207.2807              1222.4823
 Red. masses --      1.1309                 1.3335                 3.7104
 Frc consts  --      0.9616                 1.1451                 3.2671
 IR Inten    --      0.4332                25.9977                27.9656

                     70                     71                     72
                      A                      A                      A
 Frequencies --   1235.3898              1250.8810              1273.3647
 Red. masses --      2.5951                 3.2752                 1.7117
 Frc consts  --      2.3335                 3.0194                 1.6352
 IR Inten    --      3.1414               124.4250                77.3669

                     73                     74                     75
                      A                      A                      A
 Frequencies --   1280.7945              1289.2807              1319.3234
 Red. masses --      2.4588                 2.7593                 1.4388
 Frc consts  --      2.3765                 2.7023                 1.4755
 IR Inten    --    151.2603               148.1773                 2.0345

                     76                     77                     78
                      A                      A                      A
 Frequencies --   1346.1743              1362.0951              1369.5670
 Red. masses --      1.4777                 2.7371                 1.3733
 Frc consts  --      1.5777                 2.9920                 1.5176
 IR Inten    --     47.1605                 0.0526                15.1393

                     79                     80                     81
                      A                      A                      A
 Frequencies --   1405.0259              1449.3365              1453.2582
 Red. masses --      1.5059                 1.1738                 1.1370
 Frc consts  --      1.7515                 1.4527                 1.4148
 IR Inten    --      1.4984                60.3290                 1.9210

                     82                     83                     84
                      A                      A                      A
 Frequencies --   1457.2143              1478.8595              1483.4817
 Red. masses --      1.1536                 1.1529                 1.1230
 Frc consts  --      1.4433                 1.4856                 1.4561
 IR Inten    --     43.8728                 7.3996                 7.1471

                     85                     86                     87
                      A                      A                      A
 Frequencies --   1499.5694              1503.6208              1510.9900
 Red. masses --      2.1691                 1.0450                 1.0866
 Frc consts  --      2.8739                 1.3921                 1.4617
 IR Inten    --      5.7100                13.3054                 3.6913

                     88                     89                     90
                      A                      A                      A
 Frequencies --   1513.7228              1517.9207              1527.4820
 Red. masses --      1.0463                 1.0552                 1.1024
 Frc consts  --      1.4125                 1.4324                 1.5154
 IR Inten    --      6.8195                19.9139                 5.3432

                     91                     92                     93
                      A                      A                      A
 Frequencies --   1531.4735              1542.7201              1643.0858
 Red. masses --      1.0490                 2.2545                 5.4953
 Frc consts  --      1.4496                 3.1614                 8.7410
 IR Inten    --     19.2833                19.6517                 1.3713

                     94                     95                     96
                      A                      A                      A
 Frequencies --   1663.1260              3052.6168              3056.6201
 Red. masses --      5.7687                 1.0466                 1.0631
 Frc consts  --      9.4011                 5.7462                 5.8523
 IR Inten    --     10.8226                66.7365                13.6747

                     97                     98                     99
                      A                      A                      A
 Frequencies --   3058.3376              3070.7691              3106.5641
 Red. masses --      1.0444                 1.0620                 1.0995
 Frc consts  --      5.7554                 5.9000                 6.2517
 IR Inten    --     87.3144                64.8165                 3.6644

                    100                    101                    102
                      A                      A                      A
 Frequencies --   3123.8719              3124.3115              3129.1168
 Red. masses --      1.0973                 1.0581                 1.0605
 Frc consts  --      6.3091                 6.0856                 6.1181
 IR Inten    --     33.7444                11.3560                20.0973

                    103                    104                    105
                      A                      A                      A
 Frequencies --   3142.5735              3144.3802              3189.3013
 Red. masses --      1.0914                 1.0942                 1.0862
 Frc consts  --      6.3505                 6.3742                 6.5098
 IR Inten    --     52.8249                 1.3137                18.4129

                    106                    107                    108
                      A                      A                      A
 Frequencies --   3190.2018              3190.3635              3196.7112
 Red. masses --      1.1032                 1.0877                 1.1100
 Frc consts  --      6.6154                 6.5226                 6.6832
 IR Inten    --     11.1504                 9.7588                 6.3776

                    109                    110                    111
                      A                      A                      A
 Frequencies --   3202.4098              3202.5326              3203.9785
 Red. masses --      1.1110                 1.0901                 1.1018
 Frc consts  --      6.7128                 6.5870                 6.6641
 IR Inten    --      3.4232                11.4395                 6.5408

                    112                    113                    114
                      A                      A                      A
 Frequencies --   3208.5901              3221.8938              3524.4691
 Red. masses --      1.0941                 1.0976                 1.0763
 Frc consts  --      6.6365                 6.7131                 7.8769
 IR Inten    --     77.9697                35.1757               129.9385

 - Thermochemistry -
 -------------------
 Temperature   298.150 Kelvin.  Pressure   1.00000 Atm.
 Atom     1 has atomic number  8 and mass  15.99491

 Molecular mass:   316.09154 amu.
 Principal axes and moments of inertia in atomic units:
                           1         2         3
     Eigenvalues --  4127.96361********************
           X            0.99997   0.00372   0.00732
           Y           -0.00285   0.99327  -0.11574
           Z           -0.00770   0.11572   0.99325
 This molecule is an asymmetric top.
 Rotational symmetry number  1.
 Warning -- assumption of classical behavior for rotation
           may cause significant error
 Rotational temperatures (Kelvin)      0.02098     0.00763     0.00635
 Rotational constants (GHZ):           0.43720     0.15899     0.13222
 Zero-point vibrational energy     859301.4 (Joules/Mol)
                                  205.37796 (Kcal/Mol)
 Warning -- explicit consideration of  33 degrees of freedom as
           vibrations may cause significant error
 Vibrational temperatures:     13.65    23.36    32.44    69.49    77.43
          (Kelvin)            102.96   127.17   145.20   225.14   238.77
                              250.79   264.98   283.73   329.98   344.99
                              373.05   403.08   425.96   467.43   488.54
                              508.69   527.08   556.45   601.79   615.75
                              650.96   671.47   711.33   745.48   767.57
                              807.49   857.79   879.59   912.74   918.00
                              964.00  1031.22  1032.47  1104.93  1134.68
                             1158.55  1191.79  1205.08  1247.30  1287.00
                             1313.84  1344.33  1363.37  1405.69  1407.72
                             1437.92  1447.45  1462.44  1493.54  1516.94
                             1517.87  1530.79  1541.08  1568.03  1578.27
                             1594.98  1623.83  1638.95  1697.16  1706.42
                             1713.22  1728.48  1737.01  1758.88  1777.45
                             1799.74  1832.09  1842.78  1854.99  1898.21
                             1936.84  1959.75  1970.50  2021.52  2085.27
                             2090.91  2096.61  2127.75  2134.40  2157.55
                             2163.37  2173.98  2177.91  2183.95  2197.71
                             2203.45  2219.63  2364.03  2392.87  4392.03
                             4397.79  4400.27  4418.15  4469.65  4494.55
                             4495.19  4502.10  4521.46  4524.06  4588.69
                             4589.99  4590.22  4599.35  4607.55  4607.73
                             4609.81  4616.45  4635.59  5070.92

 Zero-point correction=                           0.327291 (Hartree/Particle)
 Thermal correction to Energy=                    0.348167
 Thermal correction to Enthalpy=                  0.349112
 Thermal correction to Gibbs Free Energy=         0.273991
 Sum of electronic and zero-point Energies=          -1638.532497
 Sum of electronic and thermal Energies=             -1638.511620
 Sum of electronic and thermal Enthalpies=           -1638.510676
 Sum of electronic and thermal Free Energies=        -1638.585797

                     E (Thermal)             CV                S
                      KCal/Mol        Cal/Mol-Kelvin    Cal/Mol-Kelvin
 Total                  218.478             78.627            158.105
 Electronic               0.000              0.000              0.000
 Translational            0.889              2.981             43.148
 Rotational               0.889              2.981             34.813
 Vibrational            216.701             72.665             80.143
 Vibration     1          0.593              1.987              8.115
 Vibration     2          0.593              1.986              7.049
 Vibration     3          0.593              1.985              6.396
 Vibration     4          0.595              1.978              4.886
 Vibration     5          0.596              1.976              4.672
 Vibration     6          0.598              1.968              4.110
 Vibration     7          0.601              1.957              3.695
 Vibration     8          0.604              1.948              3.437
 Vibration     9          0.620              1.895              2.592
 Vibration    10          0.624              1.884              2.481
 Vibration    11          0.627              1.874              2.389
 Vibration    12          0.631              1.861              2.286
 Vibration    13          0.637              1.844              2.159
 Vibration    14          0.652              1.796              1.884
 Vibration    15          0.657              1.780              1.804
 Vibration    16          0.668              1.747              1.667
 Vibration    17          0.680              1.710              1.533
 Vibration    18          0.690              1.681              1.439
 Vibration    19          0.709              1.626              1.285
 Vibration    20          0.719              1.596              1.214
 Vibration    21          0.730              1.568              1.150
 Vibration    22          0.739              1.542              1.095
 Vibration    23          0.755              1.498              1.013
 Vibration    24          0.781              1.431              0.898
 Vibration    25          0.789              1.409              0.865
 Vibration    26          0.811              1.355              0.788
 Vibration    27          0.824              1.324              0.747
 Vibration    28          0.850              1.262              0.672
 Vibration    29          0.873              1.210              0.614
 Vibration    30          0.888              1.176              0.579
 Vibration    31          0.917              1.115              0.521
 Vibration    32          0.954              1.040              0.456
 Vibration    33          0.970              1.008              0.431

                           ! Non-Optimized Parameters !
 Normal termination of Gaussian 16 at Tue Sep 15 09:02:01 2020.

 ----------------------------------------------------------------------
 #p b3lyp/6-31G(d) scrf=(iefpcm,read,solvent=water) geom=allcheck guess
 =read
 ----------------------------------------------------------------------

 Structure from the checkpoint file:  "SM37_m0.n.8.pdb.xyz.mst.n.w.chk"
 -------------------
 SM37_m0.n.8.pdb.xyz
 -------------------
 Charge =  0 Multiplicity = 1

 SCF Done:  E(RB3LYP) =  -1638.85985447     A.U. after    7 cycles
 Normal termination of Gaussian 16 at Tue Sep 15 09:02:54 2020.

 -----------------------------
 #p B3LYP/6-31G* geom=allcheck
 -----------------------------

 Structure from the checkpoint file:  "SM37_m0.n.8.pdb.xyz.mst.n.w.chk"
 -------------------
 SM37_m0.n.8.pdb.xyz
 -------------------
 Charge =  0 Multiplicity = 1

 SCF Done:  E(RB3LYP) =  -1638.83532615     A.U. after   15 cycles
 Normal termination of Gaussian 16 at Tue Sep 15 09:04:02 2020.
 Gaussian 16:  ES64L-G16RevB.01 20-Dec-2017

 ----------------------------------------------------------------------
 #p mp2/aug-cc-pVDZ scf=(MaxCycle=2000,NoVarAcc,NoIncFock) maxdisk=180G
 B geom=allcheck
 ----------------------------------------------------------------------

 Structure from the checkpoint file:  "SM37_m0.n.8.pdb.xyz.mst.n.w.chk"
 -------------------
 SM37_m0.n.8.pdb.xyz
 -------------------
 Charge =  0 Multiplicity = 1

                         Standard orientation:
 ---------------------------------------------------------------------
 Center     Atomic      Atomic             Coordinates (Angstroms)
 Number     Number       Type             X           Y           Z
 ---------------------------------------------------------------------
      1          8           0        2.964929   -2.177937   -1.375731
      2         16           0        2.747323   -0.924245   -0.634971
      3          7           0        1.099936   -0.673350   -0.701773
      4          6           0        0.457372    0.630220   -0.453347
      5          6           0        0.905650    1.829720   -1.331522
      6         16           0        0.824050    3.000032    0.125711
      7          8           0       -0.582001    3.588992    0.228481
      8          6           0        0.836097    1.296133    0.888044
      9          6           0       -1.063626    0.427817   -0.580657
     10          6           0       -1.664326   -0.607416    0.386456
     11          6           0       -3.167947   -0.702158    0.250270
     12          6           0       -3.753382   -1.652112   -0.597175
     13          6           0       -5.139583   -1.721455   -0.748565
     14          6           0       -5.965682   -0.838388   -0.050574
     15          6           0       -5.394644    0.111938    0.799191
     16          6           0       -4.008877    0.176731    0.945764
     17          7           0        2.969760   -1.083267    1.018123
     18          6           0        2.340521   -2.268522    1.614411
     19          6           0        4.342084   -0.835470    1.489631
     20          8           0        3.533189    0.255950   -1.027105
     21          1           0        0.733624   -1.157184   -1.521287
     22          1           0        0.249875    2.123593   -2.152243
     23          1           0        1.944393    1.760606   -1.653336
     24          1           0        0.131209    1.194718    1.713772
     25          1           0        1.845796    1.058583    1.224488
     26          1           0       -1.290700    0.144627   -1.615943
     27          1           0       -1.520109    1.408416   -0.411520
     28          1           0       -1.406335   -0.332737    1.415419
     29          1           0       -1.213875   -1.585519    0.195804
     30          1           0       -3.116049   -2.345428   -1.138892
     31          1           0       -5.573288   -2.467140   -1.407745
     32          1           0       -7.043681   -0.892435   -0.164264
     33          1           0       -6.027760    0.799849    1.350638
     34          1           0       -3.572279    0.916157    1.611367
     35          1           0        1.312785   -2.349022    1.263110
     36          1           0        2.333465   -2.124562    2.696136
     37          1           0        2.884731   -3.190293    1.378602
     38          1           0        4.717008    0.082501    1.041891
     39          1           0        5.020432   -1.665633    1.258104
     40          1           0        4.290031   -0.713633    2.572889
 ---------------------------------------------------------------------

 SCF Done:  E(RHF) =  -1632.40580334     A.U. after   16 cycles
 E2 =    -0.3116812383D+01 EUMP2 =    -0.16355226157270D+04

 The electronic state is 1-A.
 Alpha  occ. eigenvalues --  -92.25657 -92.07899 -20.57483 -20.57196 -20.52117
 Alpha  occ. eigenvalues --  -15.62926 -15.62733 -11.32727 -11.29036 -11.28881
 Alpha  occ. eigenvalues --  -11.28227 -11.27615 -11.25392 -11.25286 -11.25091
 Alpha  occ. eigenvalues --  -11.24686 -11.24586 -11.24415 -11.24301 -11.24215
 Alpha  occ. eigenvalues --   -9.22146  -9.06715  -6.90700  -6.90650  -6.90610
 Alpha  occ. eigenvalues --   -6.74923  -6.74802  -6.74674  -1.48202  -1.35196
 Alpha  occ. eigenvalues --   -1.32897  -1.27713  -1.25816  -1.16254  -1.13724
 Alpha  occ. eigenvalues --   -1.07664  -1.01933  -1.01062  -0.99500  -0.96985
 Alpha  occ. eigenvalues --   -0.95489  -0.92024  -0.85689  -0.83335  -0.82837
 Alpha  occ. eigenvalues --   -0.80090  -0.77578  -0.73707  -0.72519  -0.70461
 Alpha  occ. eigenvalues --   -0.70080  -0.67396  -0.66628  -0.65697  -0.64334
 Alpha  occ. eigenvalues --   -0.63862  -0.62700  -0.61554  -0.60728  -0.59606
 Alpha  occ. eigenvalues --   -0.59264  -0.58943  -0.58198  -0.58016  -0.56482
 Alpha  occ. eigenvalues --   -0.55527  -0.54729  -0.54463  -0.53344  -0.52332
 Alpha  occ. eigenvalues --   -0.51620  -0.51049  -0.50290  -0.49582  -0.49093
 Alpha  occ. eigenvalues --   -0.48780  -0.48378  -0.47419  -0.44327  -0.42031
 Alpha  occ. eigenvalues --   -0.40102  -0.36665  -0.33983  -0.33091
 Alpha virt. eigenvalues --    0.02546   0.03072   0.03873   0.04035   0.04366
 Alpha virt. eigenvalues --    0.04648   0.05232   0.05695   0.05926   0.06503
 Alpha virt. eigenvalues --    0.06531   0.07091   0.07473   0.08186   0.08493

 Mulliken charges:
               1
     1  O   -1.179141
     2  S    3.358767
     3  N   -1.259636
     4  C    0.816986
     5  C    0.385089
     6  S    1.475295
     7  O   -1.252496
     8  C    0.342819
     9  C   -0.158175
    10  C    0.814659
    11  C    1.282943
    12  C    0.483881
    13  C    0.027428
    14  C    0.653340
    15  C    0.001260
    16  C    0.518624
    17  N   -1.081825
    18  C    0.840542
    19  C    0.858655
    20  O   -1.208859
    21  H   -0.057581
    22  H   -0.361410
    23  H   -0.199351
    24  H   -0.288982
    25  H   -0.257256
    26  H   -0.165508
    27  H   -0.112970
    28  H   -0.317541
    29  H   -0.359082
    30  H   -0.655022
    31  H   -0.468057
    32  H   -0.436440
    33  H   -0.466444
    34  H   -0.676840
    35  H   -0.314451
    36  H   -0.147314
    37  H   -0.036415
    38  H   -0.159266
    39  H   -0.084500
    40  H   -0.155724
 Sum of Mulliken charges =  -0.00000

 Dipole moment (field-independent basis, Debye):
    X=              0.2969    Y=             -3.5151    Z=              2.6514  Tot=              4.4130
 Quadrupole moment (field-independent basis, Debye-Ang):
   XX=           -136.5380   YY=           -156.4281   ZZ=           -130.3448
   XY=              7.1420   XZ=             16.7282   YZ=             -5.0866

 Normal termination of Gaussian 16 at Tue Sep 15 10:24:42 2020.
