 Gaussian 09, Revision D.01,

 -----------------
 #p b3lyp/6-31G(d)
 -----------------

 -----------------
 SM39.n.11.pdb.xyz
 -----------------
 Symbolic Z-matrix:
 Charge =  0 Multiplicity = 1

 SCF Done:  E(RB3LYP) =  -1811.12302842     A.U. after   15 cycles
 Normal termination of Gaussian 09 at Fri Aug  7 23:51:44 2020.
 Gaussian 09:  AM64L-G09RevD.01 24-Apr-2013

 ----------------------------------------------------------------------
 #p b3lyp/6-31G(d) scrf=(iefpcm,read,solvent=Water) geom=allcheck guess
 =read
 ----------------------------------------------------------------------

 Structure from the checkpoint file:  "SM39.n.11.pdb.xyz.mst.n.w.chk"
 -----------------
 SM39.n.11.pdb.xyz
 -----------------
 Charge =  0 Multiplicity = 1

                         Standard orientation:
 ---------------------------------------------------------------------
 Center     Atomic      Atomic             Coordinates (Angstroms)
 Number     Number       Type             X           Y           Z
 ---------------------------------------------------------------------
      1          8           0        0.745458   -1.632350    1.218467
      2         16           0        1.315862   -1.575496   -0.137363
      3          7           0        0.701499   -0.245426   -0.963489
      4          6           0       -0.100767    0.788632   -0.289022
      5          6           0       -0.200266    2.033690   -1.237012
      6         16           0        0.309499    3.117085    0.138714
      7          6           0        0.689011    1.488468    0.866475
      8          8           0        1.496023    3.945455   -0.148328
      9          8           0       -0.851182    3.755724    0.792113
     10          6           0       -1.487145    0.318924    0.189048
     11          6           0       -2.385185   -0.250058   -0.921999
     12          6           0       -3.751214   -0.640450   -0.400525
     13          6           0       -4.805460    0.281962   -0.393458
     14          6           0       -6.059357   -0.067253    0.112884
     15          6           0       -6.277301   -1.349223    0.621066
     16          6           0       -5.233225   -2.278281    0.618288
     17          6           0       -3.982901   -1.923409    0.110840
     18          6           0        3.063411   -1.229190    0.035724
     19          6           0        3.613468   -1.175178    1.315891
     20          6           0        4.984574   -0.950356    1.450019
     21          6           0        5.781704   -0.788514    0.317301
     22          6           0        5.215932   -0.850482   -0.960933
     23          6           0        3.848687   -1.074650   -1.109610
     24          8           0        1.161149   -2.718443   -1.050802
     25          1           0        0.315563   -0.552756   -1.855459
     26          1           0       -1.186455    2.262160   -1.638742
     27          1           0        0.559613    2.043790   -2.018370
     28          1           0        0.302282    1.349722    1.874544
     29          1           0        1.765348    1.322905    0.828595
     30          1           0       -1.987661    1.172312    0.658801
     31          1           0       -1.333870   -0.435181    0.965613
     32          1           0       -1.904198   -1.125928   -1.366809
     33          1           0       -2.499438    0.493468   -1.718722
     34          1           0       -4.644221    1.279311   -0.791887
     35          1           0       -6.864938    0.660366    0.105824
     36          1           0       -7.251715   -1.623880    1.012674
     37          1           0       -5.394428   -3.279231    1.006323
     38          1           0       -3.176434   -2.651966    0.105720
     39          1           0        2.974848   -1.305402    2.181414
     40          1           0        5.425839   -0.904420    2.440039
     41          1           0        6.846738   -0.614314    0.427321
     42          1           0        5.838052   -0.725294   -1.839584
     43          1           0        3.403422   -1.123986   -2.095964
 ---------------------------------------------------------------------

 SCF Done:  E(RB3LYP) =  -1811.14925011     A.U. after   11 cycles

 The electronic state is 1-A.
 Alpha  occ. eigenvalues --  -89.13094 -89.10233 -19.16233 -19.16050 -19.15977
 Alpha  occ. eigenvalues --  -19.15777 -14.37913 -10.27950 -10.23528 -10.23436
 Alpha  occ. eigenvalues --  -10.23381 -10.21609 -10.21489 -10.20814 -10.20723
 Alpha  occ. eigenvalues --  -10.20662 -10.19937 -10.19782 -10.19547 -10.19098
 Alpha  occ. eigenvalues --  -10.19088 -10.18949 -10.18932 -10.18922  -8.15573
 Alpha  occ. eigenvalues --   -8.13297  -6.12087  -6.12022  -6.11839  -6.09744
 Alpha  occ. eigenvalues --   -6.09648  -6.09552  -1.12728  -1.11068  -1.01799
 Alpha  occ. eigenvalues --   -1.00800  -0.95097  -0.87872  -0.86229  -0.85685
 Alpha  occ. eigenvalues --   -0.79600  -0.78240  -0.76566  -0.74448  -0.73989
 Alpha  occ. eigenvalues --   -0.72895  -0.69462  -0.66513  -0.63103  -0.62382
 Alpha  occ. eigenvalues --   -0.60567  -0.60122  -0.58298  -0.57449  -0.55449
 Alpha  occ. eigenvalues --   -0.53551  -0.52418  -0.51320  -0.50680  -0.49408
 Alpha  occ. eigenvalues --   -0.48947  -0.48033  -0.47369  -0.46531  -0.46096
 Alpha  occ. eigenvalues --   -0.45695  -0.45287  -0.44972  -0.44383  -0.43996
 Alpha  occ. eigenvalues --   -0.42875  -0.41930  -0.41565  -0.40469  -0.39225
 Alpha  occ. eigenvalues --   -0.38956  -0.38225  -0.37427  -0.36610  -0.36324
 Alpha  occ. eigenvalues --   -0.35941  -0.35158  -0.34062  -0.33763  -0.33679
 Alpha  occ. eigenvalues --   -0.33247  -0.32957  -0.32336  -0.32012  -0.31275
 Alpha  occ. eigenvalues --   -0.29921  -0.29251  -0.27077  -0.26517  -0.25286
 Alpha  occ. eigenvalues --   -0.24491
 Alpha virt. eigenvalues --   -0.04065  -0.01945  -0.00384  -0.00357   0.02648
 Alpha virt. eigenvalues --    0.03515   0.04529   0.05526   0.06322   0.07132
 Alpha virt. eigenvalues --    0.08677   0.08945   0.09741   0.10299   0.10539

 Mulliken charges:
               1
     1  O   -0.575247
     2  S    1.231766
     3  N   -0.750505
     4  C    0.176440
     5  C   -0.490498
     6  S    1.110444
     7  C   -0.496484
     8  O   -0.552581
     9  O   -0.567702
    10  C   -0.279109
    11  C   -0.378110
    12  C    0.162979
    13  C   -0.196778
    14  C   -0.149621
    15  C   -0.151311
    16  C   -0.149669
    17  C   -0.196132
    18  C   -0.148606
    19  C   -0.146151
    20  C   -0.136419
    21  C   -0.127051
    22  C   -0.139415
    23  C   -0.138828
    24  O   -0.570613
    25  H    0.416925
    26  H    0.236775
    27  H    0.237572
    28  H    0.240948
    29  H    0.230284
    30  H    0.166516
    31  H    0.186839
    32  H    0.161772
    33  H    0.163232
    34  H    0.144349
    35  H    0.149763
    36  H    0.148746
    37  H    0.149940
    38  H    0.144119
    39  H    0.187030
    40  H    0.170377
    41  H    0.169626
    42  H    0.171202
    43  H    0.183183
 Sum of Mulliken charges =   0.00000

 Dipole moment (field-independent basis, Debye):
    X=              2.8774    Y=             -1.9637    Z=             -2.9569  Tot=              4.5694
 Quadrupole moment (field-independent basis, Debye-Ang):
   XX=           -122.1224   YY=           -195.8796   ZZ=           -143.3221
   XY=             -3.7379   XZ=              3.5644   YZ=             -8.9515

 Normal termination of Gaussian 09 at Fri Aug  7 23:58:18 2020.
