 Gaussian 09, Revision D.01,

 -----------------
 #p b3lyp/6-31G(d)
 -----------------

 ----------------
 SM39.n.4.pdb.xyz
 ----------------
 Symbolic Z-matrix:
 Charge =  0 Multiplicity = 1

 SCF Done:  E(RB3LYP) =  -1811.11785507     A.U. after   16 cycles
 Normal termination of Gaussian 09 at Sat Aug  8 00:02:53 2020.
 Gaussian 09:  AM64L-G09RevD.01 24-Apr-2013

 ----------------------------------------------------------------------
 #p b3lyp/6-31G(d) scrf=(iefpcm,read,solvent=Water) geom=allcheck guess
 =read
 ----------------------------------------------------------------------

 Structure from the checkpoint file:  "SM39.n.4.pdb.xyz.mst.n.w.chk"
 ----------------
 SM39.n.4.pdb.xyz
 ----------------
 Charge =  0 Multiplicity = 1

                         Standard orientation:
 ---------------------------------------------------------------------
 Center     Atomic      Atomic             Coordinates (Angstroms)
 Number     Number       Type             X           Y           Z
 ---------------------------------------------------------------------
      1          8           0        1.612219   -3.079244    0.126429
      2         16           0        1.386422   -1.701157   -0.329427
      3          7           0        0.293654   -1.089308    0.785959
      4          6           0       -0.294117    0.257033    0.851775
      5          6           0       -0.835780    0.797811   -0.513663
      6         16           0       -0.070589    2.414995   -0.180553
      7          6           0        0.703767    1.438889    1.149187
      8          8           0        0.867712    2.866442   -1.227245
      9          8           0       -1.046865    3.390711    0.348400
     10          6           0       -1.375009    0.215279    1.952933
     11          6           0       -2.442954   -0.887747    1.830459
     12          6           0       -3.436686   -0.736263    0.697930
     13          6           0       -3.445475   -1.645461   -0.367199
     14          6           0       -4.364843   -1.520839   -1.411449
     15          6           0       -5.295435   -0.481208   -1.403558
     16          6           0       -5.303635    0.429123   -0.343233
     17          6           0       -4.384711    0.298961    0.698991
     18          6           0        2.944031   -0.826881   -0.216350
     19          6           0        3.782017   -1.060830    0.878206
     20          6           0        4.991152   -0.374387    0.955988
     21          6           0        5.353073    0.527464   -0.050010
     22          6           0        4.509131    0.746357   -1.140584
     23          6           0        3.292998    0.066294   -1.230829
     24          8           0        0.839693   -1.453829   -1.672066
     25          1           0        0.538753   -1.447150    1.711569
     26          1           0       -1.916947    0.839321   -0.612301
     27          1           0       -0.375888    0.338386   -1.386865
     28          1           0        0.623246    1.897918    2.133816
     29          1           0        1.741349    1.224077    0.901537
     30          1           0       -1.846167    1.202849    1.991137
     31          1           0       -0.859042    0.085689    2.910143
     32          1           0       -2.986111   -0.902575    2.783000
     33          1           0       -1.942151   -1.854508    1.737719
     34          1           0       -2.722359   -2.453236   -0.374352
     35          1           0       -4.353183   -2.236759   -2.227750
     36          1           0       -6.011627   -0.382755   -2.212929
     37          1           0       -6.029412    1.235842   -0.324215
     38          1           0       -4.405142    1.006560    1.522697
     39          1           0        3.500390   -1.770813    1.647845
     40          1           0        5.652138   -0.545202    1.797185
     41          1           0        6.296836    1.057430    0.016352
     42          1           0        4.794355    1.439365   -1.923821
     43          1           0        2.624842    0.215104   -2.068514
 ---------------------------------------------------------------------

 SCF Done:  E(RB3LYP) =  -1811.14498012     A.U. after   11 cycles

 The electronic state is 1-A.
 Alpha  occ. eigenvalues --  -89.13203 -89.09862 -19.16196 -19.15938 -19.15657
 Alpha  occ. eigenvalues --  -19.15469 -14.38236 -10.28001 -10.23740 -10.22928
 Alpha  occ. eigenvalues --  -10.22587 -10.21859 -10.21705 -10.21036 -10.20914
 Alpha  occ. eigenvalues --  -10.20886 -10.20418 -10.19853 -10.19218 -10.19176
 Alpha  occ. eigenvalues --  -10.19102 -10.18980 -10.18958 -10.18858  -8.15658
 Alpha  occ. eigenvalues --   -8.12948  -6.12155  -6.12104  -6.11951  -6.09397
 Alpha  occ. eigenvalues --   -6.09298  -6.09197  -1.12824  -1.10742  -1.01839
 Alpha  occ. eigenvalues --   -1.00457  -0.95068  -0.88048  -0.86192  -0.85548
 Alpha  occ. eigenvalues --   -0.79532  -0.78337  -0.76789  -0.74503  -0.74338
 Alpha  occ. eigenvalues --   -0.72364  -0.69487  -0.66470  -0.62936  -0.62579
 Alpha  occ. eigenvalues --   -0.60873  -0.60485  -0.58136  -0.57541  -0.56058
 Alpha  occ. eigenvalues --   -0.52850  -0.52489  -0.51302  -0.50412  -0.49279
 Alpha  occ. eigenvalues --   -0.48902  -0.48114  -0.46717  -0.46498  -0.46218
 Alpha  occ. eigenvalues --   -0.45858  -0.45297  -0.44790  -0.44226  -0.43973
 Alpha  occ. eigenvalues --   -0.42939  -0.42213  -0.41779  -0.40668  -0.39287
 Alpha  occ. eigenvalues --   -0.38722  -0.38266  -0.37348  -0.36826  -0.36542
 Alpha  occ. eigenvalues --   -0.35537  -0.34797  -0.33875  -0.33625  -0.33480
 Alpha  occ. eigenvalues --   -0.33117  -0.32695  -0.32134  -0.32026  -0.30883
 Alpha  occ. eigenvalues --   -0.30701  -0.28744  -0.27265  -0.26777  -0.25341
 Alpha  occ. eigenvalues --   -0.24448
 Alpha virt. eigenvalues --   -0.04464  -0.02248  -0.00750  -0.00314   0.03201
 Alpha virt. eigenvalues --    0.04667   0.05313   0.05493   0.05838   0.06580
 Alpha virt. eigenvalues --    0.08340   0.09222   0.10160   0.10280   0.11096

 Mulliken charges:
               1
     1  O   -0.571075
     2  S    1.187664
     3  N   -0.708737
     4  C    0.191343
     5  C   -0.510288
     6  S    1.108610
     7  C   -0.496971
     8  O   -0.559687
     9  O   -0.571660
    10  C   -0.311266
    11  C   -0.344148
    12  C    0.143928
    13  C   -0.198508
    14  C   -0.145463
    15  C   -0.151433
    16  C   -0.145557
    17  C   -0.198187
    18  C   -0.164354
    19  C   -0.141736
    20  C   -0.135158
    21  C   -0.125700
    22  C   -0.133735
    23  C   -0.144368
    24  O   -0.572550
    25  H    0.411286
    26  H    0.238621
    27  H    0.250943
    28  H    0.236536
    29  H    0.228151
    30  H    0.179058
    31  H    0.176118
    32  H    0.168611
    33  H    0.168579
    34  H    0.147628
    35  H    0.150105
    36  H    0.149296
    37  H    0.150676
    38  H    0.147806
    39  H    0.187661
    40  H    0.173375
    41  H    0.172048
    42  H    0.173296
    43  H    0.189242
 Sum of Mulliken charges =   0.00000

 Dipole moment (field-independent basis, Debye):
    X=              3.1369    Y=             -0.8560    Z=              6.7208  Tot=              7.4661
 Quadrupole moment (field-independent basis, Debye-Ang):
   XX=           -123.9027   YY=           -189.5239   ZZ=           -142.0057
   XY=              8.2690   XZ=              9.4264   YZ=             -0.8314

 Normal termination of Gaussian 09 at Sat Aug  8 00:10:03 2020.
