 Gaussian 09, Revision D.01,

 -----------------
 #p b3lyp/6-31G(d)
 -----------------

 -----------------
 SM39.n.12.pdb.xyz
 -----------------
 Symbolic Z-matrix:
 Charge =  0 Multiplicity = 1

 SCF Done:  E(RB3LYP) =  -1811.12297195     A.U. after   16 cycles
 Normal termination of Gaussian 09 at Fri Aug  7 23:52:15 2020.
 Gaussian 09:  AM64L-G09RevD.01 24-Apr-2013

 ----------------------------------------------------------------------
 #p b3lyp/6-31G(d) scrf=(iefpcm,read,solvent=Water) geom=allcheck guess
 =read
 ----------------------------------------------------------------------

 Structure from the checkpoint file:  "SM39.n.12.pdb.xyz.mst.n.w.chk"
 -----------------
 SM39.n.12.pdb.xyz
 -----------------
 Charge =  0 Multiplicity = 1

                         Standard orientation:
 ---------------------------------------------------------------------
 Center     Atomic      Atomic             Coordinates (Angstroms)
 Number     Number       Type             X           Y           Z
 ---------------------------------------------------------------------
      1          8           0        0.721818   -1.705772    1.166094
      2         16           0        1.310226   -1.604993   -0.179937
      3          7           0        0.683625   -0.271979   -0.991130
      4          6           0       -0.098177    0.764565   -0.297860
      5          6           0       -0.187179    2.024311   -1.226935
      6         16           0        0.363451    3.079694    0.153143
      7          6           0        0.709944    1.434434    0.862237
      8          8           0        1.566915    3.880435   -0.137148
      9          8           0       -0.772920    3.741314    0.826119
     10          6           0       -1.486555    0.305456    0.187130
     11          6           0       -2.404414   -0.233405   -0.923254
     12          6           0       -3.772262   -0.603317   -0.395387
     13          6           0       -4.819917    0.326942   -0.403434
     14          6           0       -6.075732   -0.002753    0.108772
     15          6           0       -6.303800   -1.275315    0.638062
     16          6           0       -5.268563   -2.212167    0.650938
     17          6           0       -4.014051   -1.876370    0.137296
     18          6           0        3.046259   -1.225541    0.027854
     19          6           0        3.837798   -0.980707   -1.097815
     20          6           0        5.197887   -0.739814   -0.921284
     21          6           0        5.752166   -0.749729    0.363606
     22          6           0        4.949787   -1.000078    1.477065
     23          6           0        3.585104   -1.242514    1.314154
     24          8           0        1.188746   -2.730987   -1.119919
     25          1           0        0.275135   -0.579233   -1.873894
     26          1           0       -1.174946    2.277313   -1.609510
     27          1           0        0.559997    2.029549   -2.021456
     28          1           0        0.321909    1.295364    1.869464
     29          1           0        1.782633    1.247005    0.822602
     30          1           0       -1.969893    1.158215    0.675513
     31          1           0       -1.335409   -0.462457    0.949442
     32          1           0       -1.942788   -1.113785   -1.382589
     33          1           0       -2.511199    0.521165   -1.711468
     34          1           0       -4.648987    1.316408   -0.818662
     35          1           0       -6.876436    0.730257    0.089340
     36          1           0       -7.280282   -1.534797    1.034450
     37          1           0       -5.436817   -3.204281    1.055977
     38          1           0       -3.213996   -2.611300    0.144985
     39          1           0        3.401276   -0.972178   -2.089486
     40          1           0        5.824481   -0.544467   -1.783898
     41          1           0        6.812458   -0.560562    0.493372
     42          1           0        5.380511   -1.007611    2.471959
     43          1           0        2.941916   -1.439862    2.162428
 ---------------------------------------------------------------------

 SCF Done:  E(RB3LYP) =  -1811.14937514     A.U. after   11 cycles

 The electronic state is 1-A.
 Alpha  occ. eigenvalues --  -89.13104 -89.10233 -19.16219 -19.16047 -19.15982
 Alpha  occ. eigenvalues --  -19.15764 -14.37934 -10.27953 -10.23545 -10.23439
 Alpha  occ. eigenvalues --  -10.23381 -10.21630 -10.21499 -10.20840 -10.20727
 Alpha  occ. eigenvalues --  -10.20676 -10.19936 -10.19798 -10.19559 -10.19096
 Alpha  occ. eigenvalues --  -10.19084 -10.18944 -10.18932 -10.18927  -8.15583
 Alpha  occ. eigenvalues --   -8.13298  -6.12097  -6.12031  -6.11851  -6.09745
 Alpha  occ. eigenvalues --   -6.09650  -6.09554  -1.12709  -1.11093  -1.01759
 Alpha  occ. eigenvalues --   -1.00812  -0.95131  -0.87891  -0.86229  -0.85681
 Alpha  occ. eigenvalues --   -0.79607  -0.78261  -0.76597  -0.74442  -0.73990
 Alpha  occ. eigenvalues --   -0.72923  -0.69462  -0.66537  -0.63133  -0.62387
 Alpha  occ. eigenvalues --   -0.60572  -0.60130  -0.58290  -0.57471  -0.55404
 Alpha  occ. eigenvalues --   -0.53592  -0.52416  -0.51298  -0.50681  -0.49410
 Alpha  occ. eigenvalues --   -0.48969  -0.48025  -0.47362  -0.46535  -0.46119
 Alpha  occ. eigenvalues --   -0.45703  -0.45303  -0.44996  -0.44388  -0.44017
 Alpha  occ. eigenvalues --   -0.42888  -0.41929  -0.41584  -0.40427  -0.39249
 Alpha  occ. eigenvalues --   -0.38956  -0.38247  -0.37472  -0.36613  -0.36330
 Alpha  occ. eigenvalues --   -0.35896  -0.35160  -0.34063  -0.33773  -0.33684
 Alpha  occ. eigenvalues --   -0.33242  -0.32962  -0.32371  -0.32009  -0.31278
 Alpha  occ. eigenvalues --   -0.29932  -0.29209  -0.27103  -0.26555  -0.25282
 Alpha  occ. eigenvalues --   -0.24485
 Alpha virt. eigenvalues --   -0.04126  -0.01938  -0.00393  -0.00355   0.02640
 Alpha virt. eigenvalues --    0.03541   0.04519   0.05594   0.06315   0.07106
 Alpha virt. eigenvalues --    0.08663   0.08935   0.09717   0.10285   0.10550

 Mulliken charges:
               1
     1  O   -0.575267
     2  S    1.230401
     3  N   -0.751951
     4  C    0.176224
     5  C   -0.490884
     6  S    1.110159
     7  C   -0.498707
     8  O   -0.551881
     9  O   -0.567608
    10  C   -0.278323
    11  C   -0.378327
    12  C    0.163210
    13  C   -0.197284
    14  C   -0.149524
    15  C   -0.151313
    16  C   -0.149433
    17  C   -0.196470
    18  C   -0.152481
    19  C   -0.136707
    20  C   -0.138972
    21  C   -0.127190
    22  C   -0.135889
    23  C   -0.144661
    24  O   -0.569628
    25  H    0.417567
    26  H    0.237621
    27  H    0.237635
    28  H    0.241387
    29  H    0.230212
    30  H    0.166400
    31  H    0.186540
    32  H    0.162021
    33  H    0.163459
    34  H    0.144709
    35  H    0.149816
    36  H    0.148670
    37  H    0.149925
    38  H    0.144248
    39  H    0.183403
    40  H    0.171336
    41  H    0.169785
    42  H    0.170721
    43  H    0.187050
 Sum of Mulliken charges =   0.00000

 Dipole moment (field-independent basis, Debye):
    X=              2.6603    Y=             -1.8034    Z=             -2.8336  Tot=              4.2848
 Quadrupole moment (field-independent basis, Debye-Ang):
   XX=           -122.3907   YY=           -195.6428   ZZ=           -143.4988
   XY=             -3.9324   XZ=              4.0910   YZ=            -10.2009

 Normal termination of Gaussian 09 at Fri Aug  7 23:58:48 2020.
