 Gaussian 09, Revision D.01,

 -----------------
 #p b3lyp/6-31G(d)
 -----------------

 ----------------
 SM39.n.7.pdb.xyz
 ----------------
 Symbolic Z-matrix:
 Charge =  0 Multiplicity = 1

 SCF Done:  E(RB3LYP) =  -1811.12078092     A.U. after   16 cycles
 Normal termination of Gaussian 09 at Sat Aug  8 00:03:15 2020.
 Gaussian 09:  AM64L-G09RevD.01 24-Apr-2013

 ----------------------------------------------------------------------
 #p b3lyp/6-31G(d) scrf=(iefpcm,read,solvent=Water) geom=allcheck guess
 =read
 ----------------------------------------------------------------------

 Structure from the checkpoint file:  "SM39.n.7.pdb.xyz.mst.n.w.chk"
 ----------------
 SM39.n.7.pdb.xyz
 ----------------
 Charge =  0 Multiplicity = 1

                         Standard orientation:
 ---------------------------------------------------------------------
 Center     Atomic      Atomic             Coordinates (Angstroms)
 Number     Number       Type             X           Y           Z
 ---------------------------------------------------------------------
      1          8           0       -0.903979    1.565619   -1.954432
      2         16           0       -1.060591    2.137319   -0.606381
      3          7           0       -1.590215    0.976803    0.492965
      4          6           0       -1.403080   -0.469617    0.242562
      5          6           0       -2.254459   -1.009267   -0.965238
      6         16           0       -3.533752   -1.589516    0.194428
      7          6           0       -2.183318   -1.223954    1.366653
      8          8           0       -4.637640   -0.614948    0.325257
      9          8           0       -3.874357   -3.018792    0.077408
     10          6           0        0.101309   -0.785603    0.180364
     11          6           0        0.480126   -2.263760   -0.022710
     12          6           0        1.982379   -2.445677   -0.068905
     13          6           0        2.675142   -2.368227   -1.284326
     14          6           0        4.063848   -2.506767   -1.327148
     15          6           0        4.782756   -2.726449   -0.149865
     16          6           0        4.102760   -2.808002    1.067828
     17          6           0        2.714068   -2.668824    1.104685
     18          6           0        0.560596    2.604768   -0.023721
     19          6           0        0.735303    2.975565    1.310985
     20          6           0        1.993316    3.410216    1.724712
     21          6           0        3.049042    3.477427    0.810734
     22          6           0        2.854279    3.110227   -0.522292
     23          6           0        1.601497    2.670804   -0.950262
     24          8           0       -1.978268    3.271954   -0.413766
     25          1           0       -2.545280    1.230116    0.760912
     26          1           0       -1.808361   -1.866777   -1.465542
     27          1           0       -2.592162   -0.270354   -1.688563
     28          1           0       -1.702300   -2.150974    1.675627
     29          1           0       -2.480770   -0.634663    2.232523
     30          1           0        0.550280   -0.418313    1.108011
     31          1           0        0.533320   -0.202046   -0.636929
     32          1           0        0.046103   -2.635199   -0.956465
     33          1           0        0.067197   -2.873007    0.787523
     34          1           0        2.120510   -2.202705   -2.203531
     35          1           0        4.582536   -2.447386   -2.278386
     36          1           0        5.862035   -2.837411   -0.181393
     37          1           0        4.651830   -2.983765    1.986597
     38          1           0        2.190053   -2.738712    2.054117
     39          1           0       -0.087679    2.913453    2.012159
     40          1           0        2.148865    3.694453    2.759474
     41          1           0        4.025206    3.815464    1.140410
     42          1           0        3.675101    3.162431   -1.229224
     43          1           0        1.425075    2.375100   -1.976911
 ---------------------------------------------------------------------

 SCF Done:  E(RB3LYP) =  -1811.14659796     A.U. after   11 cycles

 The electronic state is 1-A.
 Alpha  occ. eigenvalues --  -89.13020 -89.10182 -19.16164 -19.16018 -19.15919
 Alpha  occ. eigenvalues --  -19.15833 -14.38184 -10.28169 -10.23554 -10.23541
 Alpha  occ. eigenvalues --  -10.23054 -10.21619 -10.21511 -10.20850 -10.20735
 Alpha  occ. eigenvalues --  -10.20695 -10.20463 -10.20035 -10.19898 -10.19126
 Alpha  occ. eigenvalues --  -10.19116 -10.18996 -10.18988 -10.18980  -8.15533
 Alpha  occ. eigenvalues --   -8.13270  -6.12041  -6.11973  -6.11805  -6.09720
 Alpha  occ. eigenvalues --   -6.09617  -6.09519  -1.12718  -1.11136  -1.01642
 Alpha  occ. eigenvalues --   -1.00870  -0.95381  -0.87926  -0.86187  -0.85567
 Alpha  occ. eigenvalues --   -0.79835  -0.78325  -0.76603  -0.74480  -0.74384
 Alpha  occ. eigenvalues --   -0.72808  -0.69624  -0.67108  -0.62769  -0.62179
 Alpha  occ. eigenvalues --   -0.60615  -0.60320  -0.58742  -0.57224  -0.55117
 Alpha  occ. eigenvalues --   -0.53311  -0.52429  -0.51430  -0.50666  -0.49643
 Alpha  occ. eigenvalues --   -0.49408  -0.48319  -0.47228  -0.47019  -0.46031
 Alpha  occ. eigenvalues --   -0.45745  -0.45344  -0.44885  -0.44114  -0.44052
 Alpha  occ. eigenvalues --   -0.43469  -0.41920  -0.41645  -0.40258  -0.39368
 Alpha  occ. eigenvalues --   -0.39027  -0.38340  -0.37973  -0.36679  -0.36366
 Alpha  occ. eigenvalues --   -0.35576  -0.35458  -0.34135  -0.33969  -0.33744
 Alpha  occ. eigenvalues --   -0.33307  -0.32991  -0.32078  -0.31835  -0.31408
 Alpha  occ. eigenvalues --   -0.30264  -0.29074  -0.27118  -0.26729  -0.25301
 Alpha  occ. eigenvalues --   -0.24633
 Alpha virt. eigenvalues --   -0.04152  -0.02019  -0.00451  -0.00404   0.02913
 Alpha virt. eigenvalues --    0.03673   0.04652   0.05532   0.05861   0.07753
 Alpha virt. eigenvalues --    0.08243   0.08889   0.09557   0.10133   0.10736

 Mulliken charges:
               1
     1  O   -0.579462
     2  S    1.218336
     3  N   -0.737422
     4  C    0.167746
     5  C   -0.484229
     6  S    1.099978
     7  C   -0.499868
     8  O   -0.569816
     9  O   -0.551369
    10  C   -0.288148
    11  C   -0.385052
    12  C    0.159488
    13  C   -0.193140
    14  C   -0.149129
    15  C   -0.150553
    16  C   -0.149806
    17  C   -0.194346
    18  C   -0.147872
    19  C   -0.133454
    20  C   -0.140358
    21  C   -0.125933
    22  C   -0.137141
    23  C   -0.141661
    24  O   -0.566930
    25  H    0.401334
    26  H    0.230210
    27  H    0.245664
    28  H    0.239197
    29  H    0.243534
    30  H    0.179921
    31  H    0.178983
    32  H    0.169751
    33  H    0.168657
    34  H    0.145726
    35  H    0.149993
    36  H    0.149038
    37  H    0.150043
    38  H    0.145607
    39  H    0.184287
    40  H    0.171266
    41  H    0.169918
    42  H    0.170704
    43  H    0.186305
 Sum of Mulliken charges =   0.00000

 Dipole moment (field-independent basis, Debye):
    X=              9.8949    Y=             -0.1375    Z=              3.9486  Tot=             10.6546
 Quadrupole moment (field-independent basis, Debye-Ang):
   XX=           -176.2780   YY=           -169.6374   ZZ=           -140.6867
   XY=              3.9682   XZ=             -3.7418   YZ=              7.4954

 Normal termination of Gaussian 09 at Sat Aug  8 00:09:54 2020.
