 Gaussian 09, Revision D.01,

 -----------------
 #p b3lyp/6-31G(d)
 -----------------

 ----------------
 SM39.n.2.pdb.xyz
 ----------------
 Symbolic Z-matrix:
 Charge =  0 Multiplicity = 1

 SCF Done:  E(RB3LYP) =  -1811.11873826     A.U. after   16 cycles
 Normal termination of Gaussian 09 at Sat Aug  8 00:04:00 2020.
 Gaussian 09:  AM64L-G09RevD.01 24-Apr-2013

 ----------------------------------------------------------------------
 #p b3lyp/6-31G(d) scrf=(iefpcm,read,solvent=Water) geom=allcheck guess
 =read
 ----------------------------------------------------------------------

 Structure from the checkpoint file:  "SM39.n.2.pdb.xyz.mst.n.w.chk"
 ----------------
 SM39.n.2.pdb.xyz
 ----------------
 Charge =  0 Multiplicity = 1

                         Standard orientation:
 ---------------------------------------------------------------------
 Center     Atomic      Atomic             Coordinates (Angstroms)
 Number     Number       Type             X           Y           Z
 ---------------------------------------------------------------------
      1          8           0       -1.915701    1.045633    1.819918
      2         16           0       -0.468609    1.074593    1.541355
      3          7           0        0.043839   -0.364823    0.848112
      4          6           0       -0.830831   -1.307850    0.145272
      5          6           0       -1.648204   -0.662368   -1.026302
      6         16           0       -3.137155   -1.568742   -0.480757
      7          6           0       -2.062571   -1.861149    0.956991
      8          8           0       -4.301062   -0.703915   -0.210107
      9          8           0       -3.348953   -2.799308   -1.271619
     10          6           0        0.022922   -2.494784   -0.345563
     11          6           0        1.164603   -2.172233   -1.326083
     12          6           0        2.464036   -1.689222   -0.713564
     13          6           0        3.072732   -2.379055    0.345300
     14          6           0        4.291826   -1.952865    0.873807
     15          6           0        4.932204   -0.827944    0.346116
     16          6           0        4.342245   -0.136875   -0.713384
     17          6           0        3.119298   -0.566504   -1.234727
     18          6           0       -0.199850    2.312858    0.280044
     19          6           0       -1.256735    3.155840   -0.066331
     20          6           0       -1.031200    4.164851   -1.004081
     21          6           0        0.232238    4.321501   -1.573877
     22          6           0        1.282363    3.472476   -1.210450
     23          6           0        1.073171    2.460899   -0.275749
     24          8           0        0.473693    1.310188    2.647027
     25          1           0        0.705360   -0.814564    1.480167
     26          1           0       -1.320849   -0.909074   -2.035144
     27          1           0       -1.821612    0.410289   -0.932357
     28          1           0       -2.009186   -2.905370    1.262554
     29          1           0       -2.365736   -1.213044    1.775784
     30          1           0       -0.668785   -3.190750   -0.827952
     31          1           0        0.417010   -3.017629    0.531337
     32          1           0        0.824955   -1.443663   -2.069254
     33          1           0        1.368922   -3.093826   -1.885437
     34          1           0        2.590595   -3.260023    0.760286
     35          1           0        4.744000   -2.501216    1.693914
     36          1           0        5.880835   -0.497504    0.755382
     37          1           0        4.830550    0.735972   -1.135370
     38          1           0        2.663586   -0.024533   -2.058264
     39          1           0       -2.228857    3.016746    0.390380
     40          1           0       -1.843961    4.825024   -1.285550
     41          1           0        0.401658    5.105698   -2.302853
     42          1           0        2.263835    3.597082   -1.655686
     43          1           0        1.879729    1.794289    0.005435
 ---------------------------------------------------------------------

 SCF Done:  E(RB3LYP) =  -1811.14539707     A.U. after   11 cycles

 The electronic state is 1-A.
 Alpha  occ. eigenvalues --  -89.13152 -89.09931 -19.16233 -19.15975 -19.15652
 Alpha  occ. eigenvalues --  -19.15514 -14.37971 -10.27987 -10.23624 -10.23302
 Alpha  occ. eigenvalues --  -10.22538 -10.21634 -10.21606 -10.20910 -10.20815
 Alpha  occ. eigenvalues --  -10.20747 -10.20478 -10.19978 -10.19568 -10.19158
 Alpha  occ. eigenvalues --  -10.19135 -10.18937 -10.18929 -10.18879  -8.15631
 Alpha  occ. eigenvalues --   -8.13007  -6.12144  -6.12076  -6.11903  -6.09456
 Alpha  occ. eigenvalues --   -6.09359  -6.09259  -1.12730  -1.10792  -1.01713
 Alpha  occ. eigenvalues --   -1.00515  -0.95070  -0.87961  -0.86100  -0.85643
 Alpha  occ. eigenvalues --   -0.79586  -0.78370  -0.76668  -0.74525  -0.74201
 Alpha  occ. eigenvalues --   -0.72487  -0.69654  -0.66521  -0.63024  -0.62521
 Alpha  occ. eigenvalues --   -0.60672  -0.60401  -0.58247  -0.57462  -0.55378
 Alpha  occ. eigenvalues --   -0.53011  -0.52528  -0.51491  -0.50531  -0.49608
 Alpha  occ. eigenvalues --   -0.48939  -0.48088  -0.46656  -0.46083  -0.45868
 Alpha  occ. eigenvalues --   -0.45789  -0.45372  -0.44832  -0.44129  -0.43828
 Alpha  occ. eigenvalues --   -0.43620  -0.42428  -0.41821  -0.40325  -0.39182
 Alpha  occ. eigenvalues --   -0.38530  -0.38372  -0.37990  -0.36649  -0.36408
 Alpha  occ. eigenvalues --   -0.35620  -0.35167  -0.33857  -0.33659  -0.33481
 Alpha  occ. eigenvalues --   -0.33282  -0.32683  -0.32494  -0.31922  -0.31038
 Alpha  occ. eigenvalues --   -0.30402  -0.28554  -0.27210  -0.26679  -0.25304
 Alpha  occ. eigenvalues --   -0.24252
 Alpha virt. eigenvalues --   -0.04292  -0.02131  -0.00624  -0.00253   0.03250
 Alpha virt. eigenvalues --    0.04323   0.05211   0.05562   0.06061   0.06937
 Alpha virt. eigenvalues --    0.08058   0.09138   0.09486   0.10500   0.10928

 Mulliken charges:
               1
     1  O   -0.576181
     2  S    1.214200
     3  N   -0.735299
     4  C    0.194361
     5  C   -0.502161
     6  S    1.112790
     7  C   -0.489736
     8  O   -0.556940
     9  O   -0.573669
    10  C   -0.316129
    11  C   -0.351910
    12  C    0.179157
    13  C   -0.209234
    14  C   -0.146884
    15  C   -0.152363
    16  C   -0.145933
    17  C   -0.208127
    18  C   -0.156639
    19  C   -0.143095
    20  C   -0.136344
    21  C   -0.125259
    22  C   -0.142339
    23  C   -0.134207
    24  O   -0.568889
    25  H    0.403424
    26  H    0.237608
    27  H    0.227447
    28  H    0.231103
    29  H    0.244483
    30  H    0.180029
    31  H    0.180284
    32  H    0.160752
    33  H    0.177737
    34  H    0.148638
    35  H    0.150056
    36  H    0.148670
    37  H    0.149756
    38  H    0.144351
    39  H    0.188869
    40  H    0.171521
    41  H    0.170677
    42  H    0.170611
    43  H    0.184814
 Sum of Mulliken charges =   0.00000

 Dipole moment (field-independent basis, Debye):
    X=              7.8727    Y=              0.8562    Z=             -3.5027  Tot=              8.6592
 Quadrupole moment (field-independent basis, Debye-Ang):
   XX=           -181.5210   YY=           -137.1800   ZZ=           -158.9244
   XY=            -10.1357   XZ=             -4.1937   YZ=            -25.2796

 Normal termination of Gaussian 09 at Sat Aug  8 00:10:52 2020.
