 Gaussian 09, Revision D.01,

 -----------------
 #p b3lyp/6-31G(d)
 -----------------

 -----------------
 SM39.n.13.pdb.xyz
 -----------------
 Symbolic Z-matrix:
 Charge =  0 Multiplicity = 1

 SCF Done:  E(RB3LYP) =  -1811.12032069     A.U. after   16 cycles
 Normal termination of Gaussian 09 at Fri Aug  7 23:52:15 2020.
 Gaussian 09:  AM64L-G09RevD.01 24-Apr-2013

 ----------------------------------------------------------------------
 #p b3lyp/6-31G(d) scrf=(iefpcm,read,solvent=Water) geom=allcheck guess
 =read
 ----------------------------------------------------------------------

 Structure from the checkpoint file:  "SM39.n.13.pdb.xyz.mst.n.w.chk"
 -----------------
 SM39.n.13.pdb.xyz
 -----------------
 Charge =  0 Multiplicity = 1

                         Standard orientation:
 ---------------------------------------------------------------------
 Center     Atomic      Atomic             Coordinates (Angstroms)
 Number     Number       Type             X           Y           Z
 ---------------------------------------------------------------------
      1          8           0        2.582992    1.082109    1.502492
      2         16           0        2.141798   -0.322313    1.415781
      3          7           0        0.540151   -0.432396    0.920062
      4          6           0       -0.160551    0.625184    0.179336
      5          6           0        0.621974    1.156194   -1.070886
      6         16           0        0.180817    2.869005   -0.608197
      7          6           0       -0.308459    2.008209    0.917527
      8          8           0        1.339075    3.768593   -0.457937
      9          8           0       -0.990353    3.354487   -1.367142
     10          6           0       -1.529163    0.066272   -0.259910
     11          6           0       -2.468117   -0.359585    0.883231
     12          6           0       -3.826021   -0.777014    0.361706
     13          6           0       -4.089376   -2.117701    0.047640
     14          6           0       -5.330714   -2.502856   -0.462310
     15          6           0       -6.331217   -1.549417   -0.665575
     16          6           0       -6.080698   -0.210502   -0.353979
     17          6           0       -4.837539    0.169357    0.155171
     18          6           0        3.062721   -1.092965    0.092360
     19          6           0        2.650421   -2.330122   -0.411040
     20          6           0        3.430687   -2.948072   -1.385249
     21          6           0        4.604755   -2.338723   -1.837876
     22          6           0        5.006381   -1.105837   -1.320482
     23          6           0        4.233938   -0.473347   -0.344730
     24          8           0        2.217988   -1.170014    2.616323
     25          1           0        0.004010   -0.791742    1.709302
     26          1           0        0.237920    0.844465   -2.041475
     27          1           0        1.703894    1.038489   -1.024937
     28          1           0       -1.304087    2.269345    1.273576
     29          1           0        0.448498    2.168692    1.682755
     30          1           0       -1.349326   -0.782622   -0.926348
     31          1           0       -2.023335    0.841897   -0.854138
     32          1           0       -2.585005    0.470219    1.589281
     33          1           0       -2.030683   -1.196209    1.437148
     34          1           0       -3.316328   -2.863465    0.208550
     35          1           0       -5.517255   -3.545979   -0.696429
     36          1           0       -7.297183   -1.847736   -1.058758
     37          1           0       -6.853534    0.536587   -0.503176
     38          1           0       -4.651804    1.211416    0.399499
     39          1           0        1.734079   -2.788558   -0.061072
     40          1           0        3.121318   -3.904734   -1.791276
     41          1           0        5.205359   -2.827366   -2.596803
     42          1           0        5.915495   -0.633550   -1.673594
     43          1           0        4.523315    0.484703    0.066624
 ---------------------------------------------------------------------

 SCF Done:  E(RB3LYP) =  -1811.14773112     A.U. after   11 cycles

 The electronic state is 1-A.
 Alpha  occ. eigenvalues --  -89.13165 -89.10004 -19.16243 -19.16036 -19.15707
 Alpha  occ. eigenvalues --  -19.15558 -14.38120 -10.28072 -10.23672 -10.23362
 Alpha  occ. eigenvalues --  -10.22777 -10.21690 -10.21628 -10.20922 -10.20787
 Alpha  occ. eigenvalues --  -10.20769 -10.20483 -10.20075 -10.19881 -10.19166
 Alpha  occ. eigenvalues --  -10.19153 -10.19030 -10.19027 -10.19010  -8.15659
 Alpha  occ. eigenvalues --   -8.13075  -6.12170  -6.12099  -6.11932  -6.09522
 Alpha  occ. eigenvalues --   -6.09426  -6.09329  -1.12766  -1.10864  -1.01704
 Alpha  occ. eigenvalues --   -1.00586  -0.95227  -0.87986  -0.86235  -0.85705
 Alpha  occ. eigenvalues --   -0.79856  -0.78418  -0.76682  -0.74521  -0.74318
 Alpha  occ. eigenvalues --   -0.72595  -0.69504  -0.66751  -0.62896  -0.62344
 Alpha  occ. eigenvalues --   -0.60719  -0.60482  -0.58371  -0.57499  -0.55277
 Alpha  occ. eigenvalues --   -0.53678  -0.52539  -0.51195  -0.50105  -0.49824
 Alpha  occ. eigenvalues --   -0.49246  -0.48056  -0.47173  -0.46313  -0.46153
 Alpha  occ. eigenvalues --   -0.45994  -0.45250  -0.44964  -0.44160  -0.43996
 Alpha  occ. eigenvalues --   -0.42950  -0.42074  -0.41892  -0.40606  -0.39413
 Alpha  occ. eigenvalues --   -0.38874  -0.38331  -0.37837  -0.36478  -0.36246
 Alpha  occ. eigenvalues --   -0.36124  -0.35180  -0.34027  -0.33856  -0.33656
 Alpha  occ. eigenvalues --   -0.33335  -0.32742  -0.32603  -0.31970  -0.31107
 Alpha  occ. eigenvalues --   -0.30310  -0.28504  -0.27204  -0.26773  -0.25352
 Alpha  occ. eigenvalues --   -0.24645
 Alpha virt. eigenvalues --   -0.04265  -0.02120  -0.00498  -0.00434   0.03002
 Alpha virt. eigenvalues --    0.04323   0.05103   0.05443   0.06025   0.06942
 Alpha virt. eigenvalues --    0.08086   0.08578   0.09578   0.10561   0.10993

 Mulliken charges:
               1
     1  O   -0.579031
     2  S    1.211775
     3  N   -0.745206
     4  C    0.183132
     5  C   -0.502445
     6  S    1.115454
     7  C   -0.490514
     8  O   -0.555340
     9  O   -0.571140
    10  C   -0.281245
    11  C   -0.386121
    12  C    0.160981
    13  C   -0.195666
    14  C   -0.149235
    15  C   -0.150319
    16  C   -0.149841
    17  C   -0.194438
    18  C   -0.158020
    19  C   -0.129698
    20  C   -0.138917
    21  C   -0.125364
    22  C   -0.136497
    23  C   -0.140576
    24  O   -0.562750
    25  H    0.411470
    26  H    0.238717
    27  H    0.230660
    28  H    0.230255
    29  H    0.242426
    30  H    0.177089
    31  H    0.176087
    32  H    0.168983
    33  H    0.167128
    34  H    0.145179
    35  H    0.150403
    36  H    0.149497
    37  H    0.150656
    38  H    0.145390
    39  H    0.184820
    40  H    0.171870
    41  H    0.170735
    42  H    0.171871
    43  H    0.187785
 Sum of Mulliken charges =   0.00000

 Dipole moment (field-independent basis, Debye):
    X=             -1.5683    Y=             -8.1158    Z=             -2.5598  Tot=              8.6533
 Quadrupole moment (field-independent basis, Debye-Ang):
   XX=           -139.4777   YY=           -171.8898   ZZ=           -159.9965
   XY=             -9.4343   XZ=            -21.9839   YZ=             17.7526

 Normal termination of Gaussian 09 at Fri Aug  7 23:58:53 2020.
