 Gaussian 09, Revision D.01,

 -----------------
 #p b3lyp/6-31G(d)
 -----------------

 ----------------
 SM39.n.2.pdb.xyz
 ----------------
 Symbolic Z-matrix:
 Charge =  0 Multiplicity = 1

 SCF Done:  E(RB3LYP) =  -1811.11998056     A.U. after   16 cycles
 Normal termination of Gaussian 09 at Sat Aug  8 00:33:25 2020.
 Gaussian 09:  AM64L-G09RevD.01 24-Apr-2013

 ----------------------------------------------------------------------
 #p b3lyp/6-31G(d) scrf=(iefpcm,read,solvent=n-Octanol) geom=allcheck g
 uess=read
 ----------------------------------------------------------------------

 Structure from the checkpoint file:  "SM39.n.2.pdb.xyz.mst.n.o.chk"
 ----------------
 SM39.n.2.pdb.xyz
 ----------------
 Charge =  0 Multiplicity = 1

                         Standard orientation:
 ---------------------------------------------------------------------
 Center     Atomic      Atomic             Coordinates (Angstroms)
 Number     Number       Type             X           Y           Z
 ---------------------------------------------------------------------
      1          8           0       -1.813472    1.202773    1.833586
      2         16           0       -0.370460    1.137853    1.548546
      3          7           0        0.021910   -0.337348    0.844706
      4          6           0       -0.922281   -1.231054    0.173621
      5          6           0       -1.712693   -0.556788   -0.998963
      6         16           0       -3.219356   -1.453236   -0.478166
      7          6           0       -2.181643   -1.689047    1.000744
      8          8           0       -4.394724   -0.594454   -0.276956
      9          8           0       -3.367623   -2.713716   -1.230661
     10          6           0       -0.160573   -2.479993   -0.314240
     11          6           0        0.988418   -2.246848   -1.309768
     12          6           0        2.318788   -1.832880   -0.713706
     13          6           0        2.894376   -2.548171    0.345059
     14          6           0        4.137646   -2.184286    0.864571
     15          6           0        4.833253   -1.099799    0.326694
     16          6           0        4.275435   -0.385176   -0.735500
     17          6           0        3.028695   -0.750891   -1.245813
     18          6           0       -0.035263    2.351038    0.278367
     19          6           0       -1.049321    3.238998   -0.081287
     20          6           0       -0.774622    4.223802   -1.031410
     21          6           0        0.495961    4.311885   -1.600041
     22          6           0        1.503445    3.417904   -1.222541
     23          6           0        1.243664    2.430239   -0.275619
     24          8           0        0.609780    1.297174    2.629323
     25          1           0        0.716613   -0.805034    1.421492
     26          1           0       -1.372594   -0.787044   -2.007172
     27          1           0       -1.873377    0.513946   -0.876414
     28          1           0       -2.169219   -2.710133    1.382269
     29          1           0       -2.470648   -0.966830    1.761534
     30          1           0       -0.912412   -3.126188   -0.779073
     31          1           0        0.208557   -3.024063    0.562182
     32          1           0        0.686216   -1.507890   -2.060369
     33          1           0        1.129413   -3.185983   -1.858661
     34          1           0        2.369559   -3.401446    0.765330
     35          1           0        4.564371   -2.750597    1.685674
     36          1           0        5.799213   -0.817292    0.729037
     37          1           0        4.808606    0.456735   -1.165101
     38          1           0        2.597183   -0.192448   -2.070942
     39          1           0       -2.025729    3.150566    0.378245
     40          1           0       -1.552891    4.918691   -1.324860
     41          1           0        0.704489    5.076848   -2.338188
     42          1           0        2.490331    3.489816   -1.665968
     43          1           0        2.014610    1.728087    0.018622
 ---------------------------------------------------------------------

 SCF Done:  E(RB3LYP) =  -1811.15297021     A.U. after   11 cycles

 The electronic state is 1-A.
 Alpha  occ. eigenvalues --  -89.13118 -89.09769 -19.16169 -19.15876 -19.15406
 Alpha  occ. eigenvalues --  -19.15140 -14.38339 -10.28398 -10.23823 -10.23573
 Alpha  occ. eigenvalues --  -10.22790 -10.21957 -10.21909 -10.21347 -10.21260
 Alpha  occ. eigenvalues --  -10.21178 -10.21070 -10.20405 -10.20258 -10.19560
 Alpha  occ. eigenvalues --  -10.19554 -10.19395 -10.19329 -10.19308  -8.15595
 Alpha  occ. eigenvalues --   -8.12836  -6.12117  -6.12029  -6.11871  -6.09271
 Alpha  occ. eigenvalues --   -6.09188  -6.09107  -1.12760  -1.10680  -1.01778
 Alpha  occ. eigenvalues --   -1.00398  -0.95369  -0.88280  -0.86437  -0.86016
 Alpha  occ. eigenvalues --   -0.80067  -0.78676  -0.77053  -0.74968  -0.74585
 Alpha  occ. eigenvalues --   -0.72755  -0.69927  -0.66853  -0.63461  -0.62928
 Alpha  occ. eigenvalues --   -0.61056  -0.60811  -0.58701  -0.57830  -0.55837
 Alpha  occ. eigenvalues --   -0.53254  -0.52740  -0.51965  -0.50725  -0.49862
 Alpha  occ. eigenvalues --   -0.49037  -0.48160  -0.46886  -0.46458  -0.46283
 Alpha  occ. eigenvalues --   -0.46009  -0.45750  -0.44851  -0.44567  -0.44334
 Alpha  occ. eigenvalues --   -0.43752  -0.42823  -0.42308  -0.40729  -0.39508
 Alpha  occ. eigenvalues --   -0.39042  -0.38779  -0.38330  -0.37023  -0.36875
 Alpha  occ. eigenvalues --   -0.35895  -0.35365  -0.34302  -0.33993  -0.33586
 Alpha  occ. eigenvalues --   -0.33080  -0.32437  -0.32391  -0.31861  -0.30895
 Alpha  occ. eigenvalues --   -0.30304  -0.28602  -0.27540  -0.26866  -0.25652
 Alpha  occ. eigenvalues --   -0.24625
 Alpha virt. eigenvalues --   -0.04549  -0.02491  -0.01050  -0.00575   0.03121
 Alpha virt. eigenvalues --    0.04367   0.05271   0.05463   0.05907   0.06728
 Alpha virt. eigenvalues --    0.07771   0.08818   0.08917   0.09720   0.10686

 Mulliken charges:
               1
     1  O   -0.563214
     2  S    1.216911
     3  N   -0.737011
     4  C    0.200191
     5  C   -0.502589
     6  S    1.107763
     7  C   -0.499582
     8  O   -0.526210
     9  O   -0.553402
    10  C   -0.323129
    11  C   -0.351810
    12  C    0.179752
    13  C   -0.209842
    14  C   -0.133944
    15  C   -0.138794
    16  C   -0.138378
    17  C   -0.199974
    18  C   -0.154199
    19  C   -0.148314
    20  C   -0.130479
    21  C   -0.121463
    22  C   -0.137440
    23  C   -0.133020
    24  O   -0.546091
    25  H    0.376429
    26  H    0.224046
    27  H    0.221828
    28  H    0.218727
    29  H    0.246695
    30  H    0.189028
    31  H    0.167358
    32  H    0.154238
    33  H    0.176294
    34  H    0.141938
    35  H    0.144726
    36  H    0.143433
    37  H    0.142673
    38  H    0.136381
    39  H    0.188564
    40  H    0.164879
    41  H    0.163352
    42  H    0.161903
    43  H    0.181778
 Sum of Mulliken charges =   0.00000

 Dipole moment (field-independent basis, Debye):
    X=              7.1952    Y=              0.9932    Z=             -3.1315  Tot=              7.9098
 Quadrupole moment (field-independent basis, Debye-Ang):
   XX=           -176.9410   YY=           -138.8267   ZZ=           -158.5386
   XY=             -8.1551   XZ=             -5.3156   YZ=            -23.1664

 Normal termination of Gaussian 09 at Sat Aug  8 00:39:39 2020.
