 Gaussian 09, Revision D.01,

 -----------------
 #p b3lyp/6-31G(d)
 -----------------

 -----------------
 SM39.n.15.pdb.xyz
 -----------------
 Symbolic Z-matrix:
 Charge =  0 Multiplicity = 1

 SCF Done:  E(RB3LYP) =  -1811.12062316     A.U. after   16 cycles
 Normal termination of Gaussian 09 at Sat Aug  8 00:30:46 2020.
 Gaussian 09:  AM64L-G09RevD.01 24-Apr-2013

 ----------------------------------------------------------------------
 #p b3lyp/6-31G(d) scrf=(iefpcm,read,solvent=n-Octanol) geom=allcheck g
 uess=read
 ----------------------------------------------------------------------

 Structure from the checkpoint file:  "SM39.n.15.pdb.xyz.mst.n.o.chk"
 -----------------
 SM39.n.15.pdb.xyz
 -----------------
 Charge =  0 Multiplicity = 1

                         Standard orientation:
 ---------------------------------------------------------------------
 Center     Atomic      Atomic             Coordinates (Angstroms)
 Number     Number       Type             X           Y           Z
 ---------------------------------------------------------------------
      1          8           0        0.699146   -2.066461    0.597756
      2         16           0        1.479480   -1.682133   -0.588260
      3          7           0        0.830781   -0.292994   -1.308741
      4          6           0       -0.140471    0.556705   -0.593124
      5          6           0       -0.199164    1.936528   -1.333910
      6         16           0        0.419926    2.787513    0.160405
      7          6           0        0.454812    1.062984    0.762258
      8          8           0        1.763831    3.357606   -0.018319
      9          8           0       -0.627523    3.587041    0.815965
     10          6           0       -1.515824   -0.124466   -0.468562
     11          6           0       -2.615257    0.695513    0.231589
     12          6           0       -3.929225   -0.051789    0.269822
     13          6           0       -4.178651   -1.019382    1.250864
     14          6           0       -5.380288   -1.728177    1.266648
     15          6           0       -6.355153   -1.476413    0.299578
     16          6           0       -6.119094   -0.512708   -0.681920
     17          6           0       -4.915764    0.192536   -0.692958
     18          6           0        3.083905   -1.146497   -0.004835
     19          6           0        3.425950   -1.409825    1.321198
     20          6           0        4.699283   -1.056543    1.770286
     21          6           0        5.606811   -0.455892    0.899153
     22          6           0        5.250492   -0.203493   -0.430593
     23          6           0        3.984329   -0.551586   -0.892897
     24          8           0        1.661553   -2.623566   -1.699554
     25          1           0        0.515949   -0.553313   -2.243549
     26          1           0       -1.195693    2.272586   -1.613095
     27          1           0        0.500253    2.027645   -2.165313
     28          1           0       -0.180878    0.915404    1.632558
     29          1           0        1.474417    0.743584    0.966449
     30          1           0       -1.362335   -1.065812    0.063663
     31          1           0       -1.850123   -0.377067   -1.481879
     32          1           0       -2.761689    1.650047   -0.284441
     33          1           0       -2.301163    0.938778    1.252297
     34          1           0       -3.427690   -1.217786    2.010547
     35          1           0       -5.557406   -2.471395    2.037233
     36          1           0       -7.291836   -2.024036    0.312502
     37          1           0       -6.873011   -0.305269   -1.434212
     38          1           0       -4.738022    0.947689   -1.454206
     39          1           0        2.701372   -1.875676    1.976100
     40          1           0        4.978205   -1.251722    2.799850
     41          1           0        6.593952   -0.181780    1.252518
     42          1           0        5.958409    0.266299   -1.104413
     43          1           0        3.695119   -0.355239   -1.918126
 ---------------------------------------------------------------------

 SCF Done:  E(RB3LYP) =  -1811.15438147     A.U. after   11 cycles

 The electronic state is 1-A.
 Alpha  occ. eigenvalues --  -89.12907 -89.09903 -19.16081 -19.15863 -19.15461
 Alpha  occ. eigenvalues --  -19.15409 -14.38268 -10.28200 -10.23771 -10.23546
 Alpha  occ. eigenvalues --  -10.23515 -10.21976 -10.21840 -10.21264 -10.21155
 Alpha  occ. eigenvalues --  -10.21103 -10.20227 -10.19993 -10.19960 -10.19138
 Alpha  occ. eigenvalues --  -10.19128 -10.19012 -10.19003 -10.18981  -8.15418
 Alpha  occ. eigenvalues --   -8.12959  -6.11931  -6.11849  -6.11695  -6.09391
 Alpha  occ. eigenvalues --   -6.09314  -6.09231  -1.12653  -1.10837  -1.01720
 Alpha  occ. eigenvalues --   -1.00576  -0.95360  -0.88208  -0.86224  -0.85544
 Alpha  occ. eigenvalues --   -0.79721  -0.78631  -0.76980  -0.74521  -0.74168
 Alpha  occ. eigenvalues --   -0.73310  -0.69718  -0.66535  -0.63163  -0.62627
 Alpha  occ. eigenvalues --   -0.60682  -0.60420  -0.58617  -0.57578  -0.55691
 Alpha  occ. eigenvalues --   -0.53875  -0.52675  -0.51187  -0.50595  -0.49597
 Alpha  occ. eigenvalues --   -0.49449  -0.48102  -0.47506  -0.46525  -0.46263
 Alpha  occ. eigenvalues --   -0.45751  -0.45236  -0.45098  -0.44505  -0.44260
 Alpha  occ. eigenvalues --   -0.42739  -0.42001  -0.41885  -0.41141  -0.39577
 Alpha  occ. eigenvalues --   -0.38918  -0.38516  -0.37933  -0.36840  -0.36670
 Alpha  occ. eigenvalues --   -0.35605  -0.35307  -0.34226  -0.33978  -0.33538
 Alpha  occ. eigenvalues --   -0.33052  -0.32525  -0.32342  -0.31824  -0.30928
 Alpha  occ. eigenvalues --   -0.29687  -0.29195  -0.27429  -0.26908  -0.25226
 Alpha  occ. eigenvalues --   -0.24457
 Alpha virt. eigenvalues --   -0.04449  -0.02316  -0.00407  -0.00267   0.02389
 Alpha virt. eigenvalues --    0.03383   0.04359   0.05630   0.06048   0.06795
 Alpha virt. eigenvalues --    0.08018   0.08931   0.09331   0.10053   0.10248

 Mulliken charges:
               1
     1  O   -0.560944
     2  S    1.220625
     3  N   -0.741102
     4  C    0.181150
     5  C   -0.499013
     6  S    1.114894
     7  C   -0.506437
     8  O   -0.528299
     9  O   -0.544387
    10  C   -0.283555
    11  C   -0.385805
    12  C    0.169467
    13  C   -0.185039
    14  C   -0.139236
    15  C   -0.140471
    16  C   -0.138652
    17  C   -0.189152
    18  C   -0.159761
    19  C   -0.144783
    20  C   -0.129814
    21  C   -0.120962
    22  C   -0.132738
    23  C   -0.122472
    24  O   -0.541621
    25  H    0.383748
    26  H    0.223324
    27  H    0.228740
    28  H    0.226396
    29  H    0.226863
    30  H    0.194951
    31  H    0.155451
    32  H    0.160481
    33  H    0.163026
    34  H    0.135565
    35  H    0.141455
    36  H    0.140141
    37  H    0.140837
    38  H    0.133659
    39  H    0.186352
    40  H    0.163809
    41  H    0.163277
    42  H    0.164343
    43  H    0.175689
 Sum of Mulliken charges =   0.00000

 Dipole moment (field-independent basis, Debye):
    X=              1.1738    Y=             -1.1765    Z=             -1.4512  Tot=              2.2063
 Quadrupole moment (field-independent basis, Debye-Ang):
   XX=           -127.2025   YY=           -190.2446   ZZ=           -140.9841
   XY=              1.2954   XZ=             10.1751   YZ=            -15.6909

 Normal termination of Gaussian 09 at Sat Aug  8 00:36:26 2020.
