 Gaussian 09, Revision D.01,

 -----------------
 #p b3lyp/6-31G(d)
 -----------------

 -----------------
 SM39.n.10.pdb.xyz
 -----------------
 Symbolic Z-matrix:
 Charge =  0 Multiplicity = 1

 SCF Done:  E(RB3LYP) =  -1811.11975950     A.U. after   16 cycles
 Normal termination of Gaussian 09 at Fri Aug  7 23:49:44 2020.
 Gaussian 09:  AM64L-G09RevD.01 24-Apr-2013

 ----------------------------------------------------------------------
 #p b3lyp/6-31G(d) scrf=(iefpcm,read,solvent=Water) geom=allcheck guess
 =read
 ----------------------------------------------------------------------

 Structure from the checkpoint file:  "SM39.n.10.pdb.xyz.mst.n.w.chk"
 -----------------
 SM39.n.10.pdb.xyz
 -----------------
 Charge =  0 Multiplicity = 1

                         Standard orientation:
 ---------------------------------------------------------------------
 Center     Atomic      Atomic             Coordinates (Angstroms)
 Number     Number       Type             X           Y           Z
 ---------------------------------------------------------------------
      1          8           0        2.123430   -2.135540    0.980960
      2         16           0        2.231805   -1.452957   -0.319391
      3          7           0        0.697788   -1.059212   -0.906296
      4          6           0       -0.471993   -1.095073   -0.015476
      5          6           0       -0.798615   -2.503100    0.609979
      6         16           0       -2.522091   -2.346419    0.047940
      7          6           0       -1.768221   -0.975789   -0.885686
      8          8           0       -3.000676   -3.462837   -0.789246
      9          8           0       -3.406788   -1.847527    1.121739
     10          6           0       -0.376715   -0.023653    1.084216
     11          6           0       -0.274844    1.436774    0.604619
     12          6           0       -1.582488    2.104358    0.226597
     13          6           0       -2.663274    2.141385    1.120663
     14          6           0       -3.852015    2.788207    0.782553
     15          6           0       -3.982313    3.415897   -0.459087
     16          6           0       -2.914380    3.391004   -1.356078
     17          6           0       -1.726629    2.740909   -1.012839
     18          6           0        3.045681    0.110607   -0.044611
     19          6           0        3.513780    0.409282    1.233393
     20          6           0        4.196899    1.610191    1.433410
     21          6           0        4.403084    2.484458    0.366092
     22          6           0        3.932599    2.165293   -0.912581
     23          6           0        3.251547    0.970059   -1.127880
     24          8           0        2.899979   -2.129901   -1.442532
     25          1           0        0.567251   -1.590647   -1.768980
     26          1           0       -0.690555   -2.600936    1.688884
     27          1           0       -0.319559   -3.333833    0.092894
     28          1           0       -2.313293   -0.037028   -0.821464
     29          1           0       -1.630590   -1.273785   -1.924919
     30          1           0        0.501044   -0.269275    1.688750
     31          1           0       -1.241540   -0.139020    1.744101
     32          1           0        0.416701    1.496599   -0.239763
     33          1           0        0.184545    2.009285    1.418928
     34          1           0       -2.572038    1.658089    2.089536
     35          1           0       -4.677079    2.804624    1.489954
     36          1           0       -4.907548    3.918712   -0.722447
     37          1           0       -3.004020    3.874465   -2.323757
     38          1           0       -0.897865    2.722617   -1.714874
     39          1           0        3.344255   -0.286948    2.044333
     40          1           0        4.567108    1.858610    2.422005
     41          1           0        4.932817    3.416861    0.526982
     42          1           0        4.096488    2.846146   -1.740661
     43          1           0        2.883762    0.711543   -2.113287
 ---------------------------------------------------------------------

 SCF Done:  E(RB3LYP) =  -1811.14638568     A.U. after   11 cycles

 The electronic state is 1-A.
 Alpha  occ. eigenvalues --  -89.12959 -89.09885 -19.16219 -19.15969 -19.15730
 Alpha  occ. eigenvalues --  -19.15464 -14.37978 -10.27781 -10.23565 -10.23135
 Alpha  occ. eigenvalues --  -10.22879 -10.21667 -10.21561 -10.20888 -10.20788
 Alpha  occ. eigenvalues --  -10.20730 -10.20055 -10.19923 -10.19216 -10.19180
 Alpha  occ. eigenvalues --  -10.19130 -10.18979 -10.18954 -10.18946  -8.15487
 Alpha  occ. eigenvalues --   -8.12974  -6.11990  -6.11931  -6.11756  -6.09424
 Alpha  occ. eigenvalues --   -6.09324  -6.09224  -1.12712  -1.10807  -1.01732
 Alpha  occ. eigenvalues --   -1.00524  -0.95092  -0.87953  -0.86137  -0.85502
 Alpha  occ. eigenvalues --   -0.79404  -0.78371  -0.76660  -0.74533  -0.74144
 Alpha  occ. eigenvalues --   -0.72508  -0.69517  -0.66791  -0.62877  -0.62469
 Alpha  occ. eigenvalues --   -0.60561  -0.59754  -0.58282  -0.57426  -0.55124
 Alpha  occ. eigenvalues --   -0.53645  -0.52262  -0.51350  -0.50545  -0.49397
 Alpha  occ. eigenvalues --   -0.48833  -0.48024  -0.46539  -0.46329  -0.45914
 Alpha  occ. eigenvalues --   -0.45862  -0.45361  -0.45038  -0.44172  -0.44088
 Alpha  occ. eigenvalues --   -0.42739  -0.42356  -0.41706  -0.40205  -0.39149
 Alpha  occ. eigenvalues --   -0.38654  -0.38231  -0.37666  -0.36582  -0.36413
 Alpha  occ. eigenvalues --   -0.36157  -0.35182  -0.33991  -0.33616  -0.33587
 Alpha  occ. eigenvalues --   -0.33262  -0.32703  -0.31913  -0.31701  -0.31057
 Alpha  occ. eigenvalues --   -0.30439  -0.28667  -0.27172  -0.26663  -0.25354
 Alpha  occ. eigenvalues --   -0.24455
 Alpha virt. eigenvalues --   -0.04235  -0.02055  -0.00721  -0.00319   0.03269
 Alpha virt. eigenvalues --    0.03918   0.04908   0.05477   0.06119   0.07985
 Alpha virt. eigenvalues --    0.08591   0.09357   0.09647   0.10165   0.11511

 Mulliken charges:
               1
     1  O   -0.579513
     2  S    1.222754
     3  N   -0.734449
     4  C    0.175271
     5  C   -0.476241
     6  S    1.105422
     7  C   -0.505062
     8  O   -0.556264
     9  O   -0.570840
    10  C   -0.307138
    11  C   -0.354898
    12  C    0.143151
    13  C   -0.191322
    14  C   -0.147643
    15  C   -0.151946
    16  C   -0.143915
    17  C   -0.204149
    18  C   -0.143199
    19  C   -0.141388
    20  C   -0.136950
    21  C   -0.125779
    22  C   -0.138946
    23  C   -0.138948
    24  O   -0.574849
    25  H    0.408459
    26  H    0.234876
    27  H    0.231211
    28  H    0.242886
    29  H    0.231446
    30  H    0.179755
    31  H    0.177750
    32  H    0.168747
    33  H    0.173020
    34  H    0.148474
    35  H    0.150405
    36  H    0.149338
    37  H    0.150036
    38  H    0.144541
    39  H    0.187230
    40  H    0.171046
    41  H    0.170308
    42  H    0.171919
    43  H    0.185393
 Sum of Mulliken charges =   0.00000

 Dipole moment (field-independent basis, Debye):
    X=              4.4911    Y=              8.2423    Z=             -0.8863  Tot=              9.4282
 Quadrupole moment (field-independent basis, Debye-Ang):
   XX=           -170.1642   YY=           -166.7482   ZZ=           -143.6406
   XY=              2.0336   XZ=              8.5478   YZ=             -3.7159

 Normal termination of Gaussian 09 at Fri Aug  7 23:56:09 2020.
