 Gaussian 09, Revision D.01,

 -----------------
 #p b3lyp/6-31G(d)
 -----------------

 ----------------
 SM39.n.4.pdb.xyz
 ----------------
 Symbolic Z-matrix:
 Charge =  0 Multiplicity = 1

 SCF Done:  E(RB3LYP) =  -1811.11909208     A.U. after   16 cycles
 Normal termination of Gaussian 09 at Sat Aug  8 00:35:57 2020.
 Gaussian 09:  AM64L-G09RevD.01 24-Apr-2013

 ----------------------------------------------------------------------
 #p b3lyp/6-31G(d) scrf=(iefpcm,read,solvent=n-Octanol) geom=allcheck g
 uess=read
 ----------------------------------------------------------------------

 Structure from the checkpoint file:  "SM39.n.4.pdb.xyz.mst.n.o.chk"
 ----------------
 SM39.n.4.pdb.xyz
 ----------------
 Charge =  0 Multiplicity = 1

                         Standard orientation:
 ---------------------------------------------------------------------
 Center     Atomic      Atomic             Coordinates (Angstroms)
 Number     Number       Type             X           Y           Z
 ---------------------------------------------------------------------
      1          8           0        1.566090   -3.003205   -0.232815
      2         16           0        1.409832   -1.575088   -0.519191
      3          7           0        0.295350   -1.060833    0.631388
      4          6           0       -0.311183    0.266890    0.789054
      5          6           0       -0.957402    0.831222   -0.520509
      6         16           0       -0.162701    2.444440   -0.230774
      7          6           0        0.674572    1.462124    1.059563
      8          8           0        0.737196    2.864187   -1.318596
      9          8           0       -1.101464    3.422511    0.350278
     10          6           0       -1.322116    0.163378    1.949643
     11          6           0       -2.367641   -0.965042    1.857665
     12          6           0       -3.409772   -0.819972    0.769249
     13          6           0       -3.420439   -1.696406   -0.322480
     14          6           0       -4.376404   -1.575895   -1.331414
     15          6           0       -5.343491   -0.572148   -1.261070
     16          6           0       -5.349471    0.304024   -0.173444
     17          6           0       -4.393401    0.177052    0.834991
     18          6           0        2.995469   -0.797922   -0.219271
     19          6           0        3.850154   -1.352175    0.736900
     20          6           0        5.080090   -0.741521    0.971915
     21          6           0        5.442998    0.402868    0.257298
     22          6           0        4.581959    0.940563   -0.702259
     23          6           0        3.347126    0.339557   -0.948976
     24          8           0        0.936745   -1.104094   -1.824506
     25          1           0        0.495391   -1.523580    1.516251
     26          1           0       -2.042609    0.877933   -0.522834
     27          1           0       -0.574058    0.373335   -1.431728
     28          1           0        0.620843    1.908526    2.052226
     29          1           0        1.707424    1.268689    0.774248
     30          1           0       -1.817372    1.135283    2.038043
     31          1           0       -0.749393    0.027501    2.874876
     32          1           0       -2.866285   -1.009956    2.831771
     33          1           0       -1.851312   -1.919223    1.724557
     34          1           0       -2.666253   -2.474813   -0.376973
     35          1           0       -4.366043   -2.263823   -2.169984
     36          1           0       -6.087862   -0.474484   -2.044121
     37          1           0       -6.102931    1.082629   -0.105334
     38          1           0       -4.412897    0.856835    1.680922
     39          1           0        3.561079   -2.252274    1.266019
     40          1           0        5.756654   -1.161348    1.707459
     41          1           0        6.401827    0.872461    0.444266
     42          1           0        4.870060    1.822607   -1.262346
     43          1           0        2.667359    0.735114   -1.693616
 ---------------------------------------------------------------------

 SCF Done:  E(RB3LYP) =  -1811.15224349     A.U. after   11 cycles

 The electronic state is 1-A.
 Alpha  occ. eigenvalues --  -89.13118 -89.09569 -19.16078 -19.15802 -19.15281
 Alpha  occ. eigenvalues --  -19.15084 -14.38644 -10.28324 -10.23910 -10.23108
 Alpha  occ. eigenvalues --  -10.22420 -10.22141 -10.21939 -10.21474 -10.21355
 Alpha  occ. eigenvalues --  -10.21328 -10.21207 -10.20041 -10.19898 -10.19333
 Alpha  occ. eigenvalues --  -10.19222 -10.19155 -10.19121 -10.19001  -8.15569
 Alpha  occ. eigenvalues --   -8.12646  -6.12079  -6.12003  -6.11864  -6.09083
 Alpha  occ. eigenvalues --   -6.08999  -6.08910  -1.12855  -1.10481  -1.01940
 Alpha  occ. eigenvalues --   -1.00235  -0.95391  -0.88360  -0.86329  -0.85639
 Alpha  occ. eigenvalues --   -0.79939  -0.78625  -0.77171  -0.74691  -0.74581
 Alpha  occ. eigenvalues --   -0.72536  -0.69668  -0.66778  -0.63289  -0.62939
 Alpha  occ. eigenvalues --   -0.61171  -0.60701  -0.58336  -0.57855  -0.56439
 Alpha  occ. eigenvalues --   -0.53169  -0.52605  -0.51467  -0.50604  -0.49376
 Alpha  occ. eigenvalues --   -0.48905  -0.48247  -0.47078  -0.46690  -0.46420
 Alpha  occ. eigenvalues --   -0.46089  -0.45446  -0.44865  -0.44531  -0.44031
 Alpha  occ. eigenvalues --   -0.43321  -0.42296  -0.42012  -0.41001  -0.39686
 Alpha  occ. eigenvalues --   -0.39118  -0.38527  -0.37714  -0.37239  -0.36944
 Alpha  occ. eigenvalues --   -0.35644  -0.34839  -0.34008  -0.33729  -0.33492
 Alpha  occ. eigenvalues --   -0.32919  -0.32297  -0.32074  -0.31894  -0.30904
 Alpha  occ. eigenvalues --   -0.30522  -0.28645  -0.27586  -0.26998  -0.25395
 Alpha  occ. eigenvalues --   -0.24570
 Alpha virt. eigenvalues --   -0.04782  -0.02658  -0.00860  -0.00398   0.03151
 Alpha virt. eigenvalues --    0.04612   0.05264   0.05611   0.05769   0.06341
 Alpha virt. eigenvalues --    0.07917   0.08783   0.09683   0.10181   0.10471

 Mulliken charges:
               1
     1  O   -0.547269
     2  S    1.191666
     3  N   -0.708769
     4  C    0.206133
     5  C   -0.513945
     6  S    1.107528
     7  C   -0.512299
     8  O   -0.540892
     9  O   -0.546997
    10  C   -0.321943
    11  C   -0.345073
    12  C    0.146986
    13  C   -0.189991
    14  C   -0.134869
    15  C   -0.140549
    16  C   -0.135244
    17  C   -0.192167
    18  C   -0.155298
    19  C   -0.141309
    20  C   -0.130746
    21  C   -0.122081
    22  C   -0.128971
    23  C   -0.163578
    24  O   -0.555280
    25  H    0.376923
    26  H    0.234556
    27  H    0.255706
    28  H    0.223599
    29  H    0.220937
    30  H    0.180980
    31  H    0.164043
    32  H    0.166461
    33  H    0.162376
    34  H    0.144128
    35  H    0.143497
    36  H    0.142277
    37  H    0.143521
    38  H    0.138564
    39  H    0.182227
    40  H    0.165362
    41  H    0.164826
    42  H    0.167578
    43  H    0.197396
 Sum of Mulliken charges =   0.00000

 Dipole moment (field-independent basis, Debye):
    X=              2.6685    Y=             -1.5731    Z=              6.3459  Tot=              7.0616
 Quadrupole moment (field-independent basis, Debye-Ang):
   XX=           -123.1320   YY=           -182.6236   ZZ=           -147.4946
   XY=              6.5180   XZ=             10.6563   YZ=             -1.7001

 Normal termination of Gaussian 09 at Sat Aug  8 00:42:33 2020.
