 Gaussian 09, Revision D.01,

 -----------------
 #p b3lyp/6-31G(d)
 -----------------

 ----------------
 SM39.n.1.pdb.xyz
 ----------------
 Symbolic Z-matrix:
 Charge =  0 Multiplicity = 1

 SCF Done:  E(RB3LYP) =  -1811.12259779     A.U. after   15 cycles
 Normal termination of Gaussian 09 at Sat Aug  8 00:31:25 2020.
 Gaussian 09:  AM64L-G09RevD.01 24-Apr-2013

 ----------------------------------------------------------------------
 #p b3lyp/6-31G(d) scrf=(iefpcm,read,solvent=n-Octanol) geom=allcheck g
 uess=read
 ----------------------------------------------------------------------

 Structure from the checkpoint file:  "SM39.n.1.pdb.xyz.mst.n.o.chk"
 ----------------
 SM39.n.1.pdb.xyz
 ----------------
 Charge =  0 Multiplicity = 1

                         Standard orientation:
 ---------------------------------------------------------------------
 Center     Atomic      Atomic             Coordinates (Angstroms)
 Number     Number       Type             X           Y           Z
 ---------------------------------------------------------------------
      1          8           0       -0.442702   -2.597782   -0.068420
      2         16           0        0.337923   -1.454592   -0.555304
      3          7           0       -0.173434   -0.148513    0.390449
      4          6           0       -0.184667    1.219668   -0.154312
      5          6           0        1.208929    1.618148   -0.747611
      6         16           0        1.189748    3.152916    0.242647
      7          6           0       -0.176422    2.239222    1.035252
      8          8           0        2.372607    3.329498    1.098355
      9          8           0        0.685686    4.293969   -0.540555
     10          6           0       -1.308077    1.504849   -1.172905
     11          6           0       -2.751505    1.551040   -0.631429
     12          6           0       -3.332212    0.250081   -0.116016
     13          6           0       -3.595348    0.076893    1.249166
     14          6           0       -4.141852   -1.115915    1.730411
     15          6           0       -4.438615   -2.153296    0.847937
     16          6           0       -4.187799   -1.989781   -0.516440
     17          6           0       -3.640191   -0.799870   -0.991993
     18          6           0        2.049484   -1.680458   -0.077752
     19          6           0        2.379039   -1.856802    1.268239
     20          6           0        3.706998   -2.101745    1.605767
     21          6           0        4.683715   -2.174502    0.608000
     22          6           0        4.337923   -2.003546   -0.731962
     23          6           0        3.010989   -1.756467   -1.084063
     24          8           0        0.333355   -1.097409   -1.981911
     25          1           0       -1.058779   -0.413197    0.822041
     26          1           0        1.251551    1.771431   -1.823459
     27          1           0        2.028891    0.985643   -0.404466
     28          1           0       -1.075711    2.833374    1.186621
     29          1           0        0.168430    1.789244    1.965435
     30          1           0       -1.215603    0.757985   -1.966298
     31          1           0       -1.096729    2.479791   -1.622560
     32          1           0       -3.377993    1.920430   -1.450150
     33          1           0       -2.822075    2.305678    0.159565
     34          1           0       -3.385528    0.891498    1.937597
     35          1           0       -4.340347   -1.227036    2.791877
     36          1           0       -4.865753   -3.078863    1.218027
     37          1           0       -4.420645   -2.789811   -1.210734
     38          1           0       -3.454317   -0.682675   -2.055653
     39          1           0        1.614671   -1.793197    2.033046
     40          1           0        3.981006   -2.233412    2.646859
     41          1           0        5.716556   -2.364300    0.880239
     42          1           0        5.096699   -2.060980   -1.504492
     43          1           0        2.713082   -1.616517   -2.115603
 ---------------------------------------------------------------------

 SCF Done:  E(RB3LYP) =  -1811.15390332     A.U. after   11 cycles

 The electronic state is 1-A.
 Alpha  occ. eigenvalues --  -89.12642 -89.10050 -19.15823 -19.15671 -19.15490
 Alpha  occ. eigenvalues --  -19.15464 -14.37935 -10.28120 -10.23635 -10.23618
 Alpha  occ. eigenvalues --  -10.23600 -10.21906 -10.21738 -10.21217 -10.21107
 Alpha  occ. eigenvalues --  -10.21057 -10.20385 -10.20218 -10.20112 -10.19562
 Alpha  occ. eigenvalues --  -10.19497 -10.19420 -10.19251 -10.19232  -8.15145
 Alpha  occ. eigenvalues --   -8.13104  -6.11658  -6.11573  -6.11427  -6.09537
 Alpha  occ. eigenvalues --   -6.09456  -6.09377  -1.12355  -1.10964  -1.01403
 Alpha  occ. eigenvalues --   -1.00692  -0.95181  -0.88164  -0.86301  -0.86013
 Alpha  occ. eigenvalues --   -0.79816  -0.78478  -0.76941  -0.74894  -0.74312
 Alpha  occ. eigenvalues --   -0.73191  -0.69628  -0.66638  -0.63496  -0.62763
 Alpha  occ. eigenvalues --   -0.60998  -0.60275  -0.58801  -0.57596  -0.55413
 Alpha  occ. eigenvalues --   -0.53607  -0.52307  -0.51830  -0.50925  -0.49373
 Alpha  occ. eigenvalues --   -0.48909  -0.47786  -0.47039  -0.46824  -0.46306
 Alpha  occ. eigenvalues --   -0.45846  -0.45568  -0.44954  -0.44551  -0.44408
 Alpha  occ. eigenvalues --   -0.43558  -0.42410  -0.41919  -0.40024  -0.39606
 Alpha  occ. eigenvalues --   -0.39432  -0.38648  -0.38333  -0.36747  -0.36468
 Alpha  occ. eigenvalues --   -0.36317  -0.34991  -0.34324  -0.34169  -0.33378
 Alpha  occ. eigenvalues --   -0.32965  -0.32655  -0.32147  -0.31525  -0.30973
 Alpha  occ. eigenvalues --   -0.29733  -0.29102  -0.27394  -0.26829  -0.25609
 Alpha  occ. eigenvalues --   -0.24705
 Alpha virt. eigenvalues --   -0.04357  -0.02248  -0.01051  -0.00720   0.02621
 Alpha virt. eigenvalues --    0.03855   0.04642   0.05589   0.06254   0.07110
 Alpha virt. eigenvalues --    0.08431   0.09051   0.09698   0.09988   0.11117

 Mulliken charges:
               1
     1  O   -0.541089
     2  S    1.239187
     3  N   -0.752886
     4  C    0.174686
     5  C   -0.504542
     6  S    1.105210
     7  C   -0.498544
     8  O   -0.526254
     9  O   -0.545731
    10  C   -0.288946
    11  C   -0.370799
    12  C    0.149225
    13  C   -0.224033
    14  C   -0.128061
    15  C   -0.136252
    16  C   -0.124360
    17  C   -0.174793
    18  C   -0.161905
    19  C   -0.128524
    20  C   -0.132983
    21  C   -0.122100
    22  C   -0.129705
    23  C   -0.145197
    24  O   -0.566223
    25  H    0.376546
    26  H    0.232533
    27  H    0.223041
    28  H    0.224104
    29  H    0.226558
    30  H    0.192796
    31  H    0.169310
    32  H    0.173052
    33  H    0.154336
    34  H    0.137419
    35  H    0.144842
    36  H    0.143511
    37  H    0.144760
    38  H    0.141829
    39  H    0.175002
    40  H    0.163711
    41  H    0.162630
    42  H    0.163413
    43  H    0.185231
 Sum of Mulliken charges =   0.00000

 Dipole moment (field-independent basis, Debye):
    X=             -0.2231    Y=             -2.9567    Z=              1.9042  Tot=              3.5239
 Quadrupole moment (field-independent basis, Debye-Ang):
   XX=           -135.0506   YY=           -182.9171   ZZ=           -144.8798
   XY=            -20.1799   XZ=             -4.6590   YZ=             -4.2702

 Normal termination of Gaussian 09 at Sat Aug  8 00:38:04 2020.
