 Gaussian 09, Revision D.01,

 -----------------
 #p b3lyp/6-31G(d)
 -----------------

 -----------------
 SM39.n.14.pdb.xyz
 -----------------
 Symbolic Z-matrix:
 Charge =  0 Multiplicity = 1

 SCF Done:  E(RB3LYP) =  -1811.12096582     A.U. after   16 cycles
 Normal termination of Gaussian 09 at Fri Aug  7 23:53:11 2020.
 Gaussian 09:  AM64L-G09RevD.01 24-Apr-2013

 ----------------------------------------------------------------------
 #p b3lyp/6-31G(d) scrf=(iefpcm,read,solvent=Water) geom=allcheck guess
 =read
 ----------------------------------------------------------------------

 Structure from the checkpoint file:  "SM39.n.14.pdb.xyz.mst.n.w.chk"
 -----------------
 SM39.n.14.pdb.xyz
 -----------------
 Charge =  0 Multiplicity = 1

                         Standard orientation:
 ---------------------------------------------------------------------
 Center     Atomic      Atomic             Coordinates (Angstroms)
 Number     Number       Type             X           Y           Z
 ---------------------------------------------------------------------
      1          8           0        2.912788    0.992050    1.229410
      2         16           0        2.226496   -0.300304    1.411272
      3          7           0        0.567349   -0.133397    1.240098
      4          6           0       -0.084669    0.968781    0.522083
      5          6           0        0.473925    1.223310   -0.920930
      6         16           0        0.432517    3.022612   -0.607984
      7          6           0        0.177405    2.414071    1.088497
      8          8           0        1.723363    3.702150   -0.828115
      9          8           0       -0.789237    3.643749   -1.160486
     10          6           0       -1.595301    0.669921    0.506624
     11          6           0       -1.981175   -0.653274   -0.174905
     12          6           0       -3.476543   -0.881121   -0.159554
     13          6           0       -4.294039   -0.370193   -1.177348
     14          6           0       -5.676927   -0.556715   -1.147243
     15          6           0       -6.267052   -1.259354   -0.094509
     16          6           0       -5.463590   -1.775465    0.925565
     17          6           0       -4.080535   -1.586073    0.890289
     18          6           0        2.707569   -1.354421    0.050437
     19          6           0        2.034675   -2.562589   -0.157806
     20          6           0        2.467866   -3.401026   -1.182350
     21          6           0        3.558754   -3.035230   -1.976569
     22          6           0        4.224363   -1.829034   -1.751863
     23          6           0        3.801413   -0.978581   -0.728637
     24          8           0        2.400821   -1.033145    2.675483
     25          1           0        0.125522   -0.342286    2.135506
     26          1           0       -0.156348    0.900230   -1.747662
     27          1           0        1.505528    0.911180   -1.078738
     28          1           0       -0.650236    2.889519    1.613664
     29          1           0        1.110794    2.491856    1.642658
     30          1           0       -2.097403    1.505255    0.007765
     31          1           0       -1.952090    0.668622    1.543368
     32          1           0       -1.471911   -1.476134    0.333234
     33          1           0       -1.621481   -0.645412   -1.210428
     34          1           0       -3.841002    0.172870   -2.002019
     35          1           0       -6.292204   -0.157546   -1.947288
     36          1           0       -7.341356   -1.408595   -0.071110
     37          1           0       -5.911397   -2.326666    1.745501
     38          1           0       -3.459639   -1.994050    1.682533
     39          1           0        1.187192   -2.834352    0.459332
     40          1           0        1.953082   -4.337470   -1.361581
     41          1           0        3.887997   -3.693051   -2.772916
     42          1           0        5.070151   -1.546755   -2.368247
     43          1           0        4.300437   -0.036846   -0.537887
 ---------------------------------------------------------------------

 SCF Done:  E(RB3LYP) =  -1811.14955105     A.U. after   11 cycles

 The electronic state is 1-A.
 Alpha  occ. eigenvalues --  -89.13178 -89.09976 -19.16231 -19.16023 -19.15695
 Alpha  occ. eigenvalues --  -19.15541 -14.37999 -10.28025 -10.23651 -10.23366
 Alpha  occ. eigenvalues --  -10.22685 -10.21718 -10.21609 -10.20914 -10.20788
 Alpha  occ. eigenvalues --  -10.20765 -10.20447 -10.19915 -10.19381 -10.19101
 Alpha  occ. eigenvalues --  -10.19091 -10.18954 -10.18938 -10.18927  -8.15660
 Alpha  occ. eigenvalues --   -8.13049  -6.12173  -6.12103  -6.11933  -6.09496
 Alpha  occ. eigenvalues --   -6.09400  -6.09302  -1.12754  -1.10820  -1.01706
 Alpha  occ. eigenvalues --   -1.00548  -0.95156  -0.87973  -0.86169  -0.85617
 Alpha  occ. eigenvalues --   -0.79680  -0.78404  -0.76674  -0.74445  -0.74294
 Alpha  occ. eigenvalues --   -0.72541  -0.69437  -0.66502  -0.62830  -0.62412
 Alpha  occ. eigenvalues --   -0.60669  -0.60447  -0.58169  -0.57675  -0.55369
 Alpha  occ. eigenvalues --   -0.53093  -0.52556  -0.51495  -0.50415  -0.49605
 Alpha  occ. eigenvalues --   -0.48921  -0.48022  -0.47148  -0.46253  -0.45977
 Alpha  occ. eigenvalues --   -0.45850  -0.45464  -0.44759  -0.44123  -0.43906
 Alpha  occ. eigenvalues --   -0.42812  -0.41916  -0.41838  -0.40910  -0.39294
 Alpha  occ. eigenvalues --   -0.38623  -0.38286  -0.38212  -0.36478  -0.36023
 Alpha  occ. eigenvalues --   -0.35705  -0.35142  -0.33964  -0.33783  -0.33611
 Alpha  occ. eigenvalues --   -0.33215  -0.32740  -0.32545  -0.31937  -0.31047
 Alpha  occ. eigenvalues --   -0.30411  -0.28500  -0.27198  -0.26682  -0.25292
 Alpha  occ. eigenvalues --   -0.24503
 Alpha virt. eigenvalues --   -0.04265  -0.02115  -0.00412  -0.00355   0.03174
 Alpha virt. eigenvalues --    0.04279   0.05142   0.05408   0.06021   0.06956
 Alpha virt. eigenvalues --    0.07865   0.08952   0.09559   0.10466   0.10861

 Mulliken charges:
               1
     1  O   -0.580373
     2  S    1.214710
     3  N   -0.739608
     4  C    0.190646
     5  C   -0.504596
     6  S    1.112858
     7  C   -0.485371
     8  O   -0.556874
     9  O   -0.571410
    10  C   -0.304146
    11  C   -0.362101
    12  C    0.160650
    13  C   -0.196749
    14  C   -0.149283
    15  C   -0.151533
    16  C   -0.149206
    17  C   -0.198079
    18  C   -0.156644
    19  C   -0.133115
    20  C   -0.138649
    21  C   -0.125715
    22  C   -0.136425
    23  C   -0.141656
    24  O   -0.564454
    25  H    0.412500
    26  H    0.236547
    27  H    0.231278
    28  H    0.231932
    29  H    0.241583
    30  H    0.178027
    31  H    0.176427
    32  H    0.172097
    33  H    0.161273
    34  H    0.144303
    35  H    0.149806
    36  H    0.148790
    37  H    0.149691
    38  H    0.144376
    39  H    0.186096
    40  H    0.171943
    41  H    0.170648
    42  H    0.171772
    43  H    0.188037
 Sum of Mulliken charges =   0.00000

 Dipole moment (field-independent basis, Debye):
    X=             -3.2216    Y=             -7.9822    Z=             -1.0885  Tot=              8.6763
 Quadrupole moment (field-independent basis, Debye-Ang):
   XX=           -153.3354   YY=           -173.3899   ZZ=           -151.5038
   XY=            -10.7282   XZ=            -21.1051   YZ=             17.8000

 Normal termination of Gaussian 09 at Fri Aug  7 23:59:47 2020.
