 Gaussian 09, Revision D.01,

 -----------------
 #p b3lyp/6-31G(d)
 -----------------

 ----------------
 SM39.n.5.pdb.xyz
 ----------------
 Symbolic Z-matrix:
 Charge =  0 Multiplicity = 1

 SCF Done:  E(RB3LYP) =  -1811.11879171     A.U. after   16 cycles
 Normal termination of Gaussian 09 at Sat Aug  8 00:03:19 2020.
 Gaussian 09:  AM64L-G09RevD.01 24-Apr-2013

 ----------------------------------------------------------------------
 #p b3lyp/6-31G(d) scrf=(iefpcm,read,solvent=Water) geom=allcheck guess
 =read
 ----------------------------------------------------------------------

 Structure from the checkpoint file:  "SM39.n.5.pdb.xyz.mst.n.w.chk"
 ----------------
 SM39.n.5.pdb.xyz
 ----------------
 Charge =  0 Multiplicity = 1

                         Standard orientation:
 ---------------------------------------------------------------------
 Center     Atomic      Atomic             Coordinates (Angstroms)
 Number     Number       Type             X           Y           Z
 ---------------------------------------------------------------------
      1          8           0       -0.781326    1.494747    2.438763
      2         16           0        0.340909    0.992505    1.633052
      3          7           0       -0.232630   -0.435396    0.977894
      4          6           0        0.528949   -1.420668    0.200095
      5          6           0        1.692929   -2.071574    1.019906
      6         16           0        2.797766   -1.911143   -0.419173
      7          6           0        1.402852   -0.892569   -0.995338
      8          8           0        4.031596   -1.146894   -0.151632
      9          8           0        2.907601   -3.175524   -1.176933
     10          6           0       -0.447493   -2.519491   -0.265375
     11          6           0       -1.515250   -2.121301   -1.303119
     12          6           0       -2.702295   -1.328079   -0.788448
     13          6           0       -3.019847   -0.079258   -1.339834
     14          6           0       -4.133220    0.640975   -0.897400
     15          6           0       -4.948995    0.118031    0.105958
     16          6           0       -4.645630   -1.127693    0.663682
     17          6           0       -3.533834   -1.842728    0.218333
     18          6           0        0.644631    2.185196    0.330816
     19          6           0       -0.439081    2.750562   -0.349106
     20          6           0       -0.184528    3.678728   -1.357114
     21          6           0        1.129437    4.034746   -1.671108
     22          6           0        2.200607    3.467041   -0.977248
     23          6           0        1.962116    2.534025    0.032632
     24          8           0        1.633904    0.698635    2.267682
     25          1           0       -1.186316   -0.295956    0.641410
     26          1           0        1.532981   -3.098982    1.343860
     27          1           0        2.051872   -1.442240    1.833191
     28          1           0        1.057874   -1.146820   -1.996794
     29          1           0        1.665067    0.162815   -0.939508
     30          1           0       -0.921571   -2.946131    0.623587
     31          1           0        0.169619   -3.310258   -0.701556
     32          1           0       -1.885525   -3.055501   -1.740653
     33          1           0       -1.047030   -1.570176   -2.125445
     34          1           0       -2.388067    0.328539   -2.122693
     35          1           0       -4.362329    1.604869   -1.340528
     36          1           0       -5.814384    0.673882    0.452146
     37          1           0       -5.276765   -1.542737    1.442532
     38          1           0       -3.311632   -2.812245    0.653800
     39          1           0       -1.455303    2.474847   -0.096964
     40          1           0       -1.013102    4.126244   -1.894670
     41          1           0        1.317693    4.759015   -2.455851
     42          1           0        3.219493    3.749382   -1.217989
     43          1           0        2.774756    2.084046    0.587796
 ---------------------------------------------------------------------

 SCF Done:  E(RB3LYP) =  -1811.14280926     A.U. after   11 cycles

 The electronic state is 1-A.
 Alpha  occ. eigenvalues --  -89.13462 -89.10091 -19.16496 -19.16186 -19.15822
 Alpha  occ. eigenvalues --  -19.15644 -14.38670 -10.28320 -10.23958 -10.23261
 Alpha  occ. eigenvalues --  -10.22805 -10.22082 -10.21816 -10.21151 -10.21089
 Alpha  occ. eigenvalues --  -10.21043 -10.20798 -10.20621 -10.20110 -10.19694
 Alpha  occ. eigenvalues --  -10.19639 -10.19618 -10.19537 -10.19461  -8.15921
 Alpha  occ. eigenvalues --   -8.13168  -6.12423  -6.12363  -6.12212  -6.09615
 Alpha  occ. eigenvalues --   -6.09519  -6.09421  -1.13114  -1.10925  -1.02112
 Alpha  occ. eigenvalues --   -1.00643  -0.95610  -0.88234  -0.86551  -0.86276
 Alpha  occ. eigenvalues --   -0.80055  -0.78559  -0.76986  -0.75090  -0.74737
 Alpha  occ. eigenvalues --   -0.72708  -0.69964  -0.66760  -0.63344  -0.62803
 Alpha  occ. eigenvalues --   -0.61350  -0.61054  -0.58684  -0.57711  -0.56539
 Alpha  occ. eigenvalues --   -0.53515  -0.52763  -0.51807  -0.50472  -0.50105
 Alpha  occ. eigenvalues --   -0.49216  -0.48369  -0.47036  -0.46500  -0.46240
 Alpha  occ. eigenvalues --   -0.46097  -0.45588  -0.45230  -0.44433  -0.44150
 Alpha  occ. eigenvalues --   -0.43749  -0.42699  -0.42289  -0.40720  -0.39572
 Alpha  occ. eigenvalues --   -0.39051  -0.38655  -0.38441  -0.36819  -0.36670
 Alpha  occ. eigenvalues --   -0.36148  -0.35242  -0.34277  -0.34035  -0.33930
 Alpha  occ. eigenvalues --   -0.33283  -0.32830  -0.32403  -0.32310  -0.31399
 Alpha  occ. eigenvalues --   -0.30986  -0.28908  -0.27471  -0.27024  -0.25878
 Alpha  occ. eigenvalues --   -0.25140
 Alpha virt. eigenvalues --   -0.04657  -0.02546  -0.01382  -0.00893   0.03019
 Alpha virt. eigenvalues --    0.04237   0.04960   0.05553   0.05728   0.06386
 Alpha virt. eigenvalues --    0.08339   0.09109   0.09417   0.10523   0.10643

 Mulliken charges:
               1
     1  O   -0.566998
     2  S    1.183832
     3  N   -0.717432
     4  C    0.194047
     5  C   -0.492348
     6  S    1.109670
     7  C   -0.510724
     8  O   -0.556315
     9  O   -0.570663
    10  C   -0.314310
    11  C   -0.359271
    12  C    0.108687
    13  C   -0.212292
    14  C   -0.138605
    15  C   -0.145706
    16  C   -0.141834
    17  C   -0.183189
    18  C   -0.154024
    19  C   -0.145776
    20  C   -0.134734
    21  C   -0.124289
    22  C   -0.129984
    23  C   -0.157399
    24  O   -0.573114
    25  H    0.382748
    26  H    0.235502
    27  H    0.251896
    28  H    0.239780
    29  H    0.226242
    30  H    0.186171
    31  H    0.183811
    32  H    0.186395
    33  H    0.165356
    34  H    0.153667
    35  H    0.156493
    36  H    0.154890
    37  H    0.156108
    38  H    0.155805
    39  H    0.181294
    40  H    0.174550
    41  H    0.173410
    42  H    0.175074
    43  H    0.193579
 Sum of Mulliken charges =   0.00000

 Dipole moment (field-independent basis, Debye):
    X=             -6.9904    Y=              2.2343    Z=             -5.7378  Tot=              9.3156
 Quadrupole moment (field-independent basis, Debye-Ang):
   XX=           -169.5102   YY=           -140.9933   ZZ=           -161.9213
   XY=             17.6666   XZ=              1.7726   YZ=            -23.6788

 Normal termination of Gaussian 09 at Sat Aug  8 00:10:53 2020.
