 Gaussian 09, Revision D.01,

 -----------------
 #p b3lyp/6-31G(d)
 -----------------

 ----------------
 SM39.n.6.pdb.xyz
 ----------------
 Symbolic Z-matrix:
 Charge =  0 Multiplicity = 1

 SCF Done:  E(RB3LYP) =  -1811.11681404     A.U. after   16 cycles
 Normal termination of Gaussian 09 at Sat Aug  8 00:02:03 2020.
 Gaussian 09:  AM64L-G09RevD.01 24-Apr-2013

 ----------------------------------------------------------------------
 #p b3lyp/6-31G(d) scrf=(iefpcm,read,solvent=Water) geom=allcheck guess
 =read
 ----------------------------------------------------------------------

 Structure from the checkpoint file:  "SM39.n.6.pdb.xyz.mst.n.w.chk"
 ----------------
 SM39.n.6.pdb.xyz
 ----------------
 Charge =  0 Multiplicity = 1

                         Standard orientation:
 ---------------------------------------------------------------------
 Center     Atomic      Atomic             Coordinates (Angstroms)
 Number     Number       Type             X           Y           Z
 ---------------------------------------------------------------------
      1          8           0        2.700826    1.294851    1.354977
      2         16           0        2.333031   -0.124574    1.502330
      3          7           0        0.694455   -0.367624    1.242036
      4          6           0       -0.177958    0.504367    0.436110
      5          6           0        0.366738    0.761493   -1.010626
      6         16           0        0.152605    2.564774   -0.789702
      7          6           0       -0.252182    2.007209    0.899038
      8          8           0        1.410570    3.328007   -0.888697
      9          8           0       -1.028469    3.081094   -1.512316
     10          6           0       -1.550728   -0.206227    0.452674
     11          6           0       -2.683907    0.457699   -0.348123
     12          6           0       -3.969370   -0.334264   -0.233981
     13          6           0       -4.899437   -0.045121    0.773223
     14          6           0       -6.074353   -0.789300    0.898174
     15          6           0       -6.336381   -1.838060    0.014339
     16          6           0       -5.416756   -2.134899   -0.995259
     17          6           0       -4.244075   -1.388111   -1.115092
     18          6           0        3.126966   -1.023310    0.176772
     19          6           0        2.780536   -2.358401   -0.053215
     20          6           0        3.461065   -3.064812   -1.042000
     21          6           0        4.472779   -2.443306   -1.780157
     22          6           0        4.811150   -1.111136   -1.534029
     23          6           0        4.138046   -0.390422   -0.546755
     24          8           0        2.608446   -0.804206    2.778530
     25          1           0        0.272085   -0.639235    2.130216
     26          1           0       -0.241124    0.359714   -1.819654
     27          1           0        1.416224    0.515654   -1.168554
     28          1           0       -1.225098    2.357306    1.240823
     29          1           0        0.540624    2.291350    1.587372
     30          1           0       -1.868545   -0.294320    1.497885
     31          1           0       -1.392782   -1.223987    0.081033
     32          1           0       -2.399033    0.536786   -1.401561
     33          1           0       -2.852969    1.475599    0.013904
     34          1           0       -4.703979    0.773364    1.459171
     35          1           0       -6.785226   -0.547300    1.681832
     36          1           0       -7.250100   -2.416089    0.107461
     37          1           0       -5.613234   -2.944819   -1.690513
     38          1           0       -3.535037   -1.619699   -1.905837
     39          1           0        1.989977   -2.828759    0.518824
     40          1           0        3.200272   -4.098195   -1.237396
     41          1           0        4.996883   -2.999492   -2.549057
     42          1           0        5.595487   -0.630280   -2.108081
     43          1           0        4.380443    0.644201   -0.340680
 ---------------------------------------------------------------------

 SCF Done:  E(RB3LYP) =  -1811.14582836     A.U. after   11 cycles

 The electronic state is 1-A.
 Alpha  occ. eigenvalues --  -89.13042 -89.09839 -19.16079 -19.15897 -19.15500
 Alpha  occ. eigenvalues --  -19.15432 -14.37855 -10.28057 -10.23609 -10.23275
 Alpha  occ. eigenvalues --  -10.22661 -10.21682 -10.21590 -10.20913 -10.20772
 Alpha  occ. eigenvalues --  -10.20756 -10.20509 -10.19997 -10.19648 -10.19138
 Alpha  occ. eigenvalues --  -10.19126 -10.18995 -10.18983 -10.18977  -8.15526
 Alpha  occ. eigenvalues --   -8.12911  -6.12036  -6.11968  -6.11803  -6.09358
 Alpha  occ. eigenvalues --   -6.09261  -6.09166  -1.12631  -1.10690  -1.01563
 Alpha  occ. eigenvalues --   -1.00384  -0.94982  -0.87949  -0.86138  -0.85456
 Alpha  occ. eigenvalues --   -0.79655  -0.78418  -0.76666  -0.74496  -0.74340
 Alpha  occ. eigenvalues --   -0.72502  -0.69845  -0.66300  -0.62673  -0.62331
 Alpha  occ. eigenvalues --   -0.60607  -0.60375  -0.58319  -0.57173  -0.55093
 Alpha  occ. eigenvalues --   -0.53614  -0.52314  -0.51166  -0.50484  -0.49616
 Alpha  occ. eigenvalues --   -0.49204  -0.47973  -0.47539  -0.46364  -0.46007
 Alpha  occ. eigenvalues --   -0.45776  -0.45183  -0.44764  -0.44139  -0.43963
 Alpha  occ. eigenvalues --   -0.42757  -0.41935  -0.41546  -0.40561  -0.39401
 Alpha  occ. eigenvalues --   -0.39016  -0.38270  -0.37611  -0.36440  -0.36202
 Alpha  occ. eigenvalues --   -0.35528  -0.35164  -0.33962  -0.33685  -0.33518
 Alpha  occ. eigenvalues --   -0.33384  -0.32563  -0.32503  -0.31875  -0.30762
 Alpha  occ. eigenvalues --   -0.30258  -0.28461  -0.27195  -0.26672  -0.25327
 Alpha  occ. eigenvalues --   -0.24607
 Alpha virt. eigenvalues --   -0.04257  -0.02074  -0.00455  -0.00404   0.02706
 Alpha virt. eigenvalues --    0.04124   0.05062   0.05620   0.06045   0.06437
 Alpha virt. eigenvalues --    0.08135   0.09263   0.09587   0.10723   0.10837

 Mulliken charges:
               1
     1  O   -0.571486
     2  S    1.205997
     3  N   -0.742325
     4  C    0.204394
     5  C   -0.513117
     6  S    1.132986
     7  C   -0.496866
     8  O   -0.558998
     9  O   -0.575796
    10  C   -0.292500
    11  C   -0.382129
    12  C    0.159726
    13  C   -0.196034
    14  C   -0.149363
    15  C   -0.150792
    16  C   -0.149674
    17  C   -0.194910
    18  C   -0.163442
    19  C   -0.128560
    20  C   -0.138936
    21  C   -0.125599
    22  C   -0.136356
    23  C   -0.139679
    24  O   -0.567224
    25  H    0.410273
    26  H    0.238920
    27  H    0.230067
    28  H    0.230423
    29  H    0.243738
    30  H    0.173587
    31  H    0.178785
    32  H    0.168959
    33  H    0.168322
    34  H    0.145083
    35  H    0.150123
    36  H    0.149128
    37  H    0.150159
    38  H    0.145082
    39  H    0.185145
    40  H    0.171773
    41  H    0.170653
    42  H    0.171695
    43  H    0.188770
 Sum of Mulliken charges =   0.00000

 Dipole moment (field-independent basis, Debye):
    X=             -2.4884    Y=             -8.3400    Z=             -1.1720  Tot=              8.7819
 Quadrupole moment (field-independent basis, Debye-Ang):
   XX=           -147.3061   YY=           -167.5950   ZZ=           -156.6894
   XY=             -9.1891   XZ=            -27.0449   YZ=             20.1149

 Normal termination of Gaussian 09 at Sat Aug  8 00:08:39 2020.
