 Gaussian 09, Revision D.01,

 -----------------
 #p b3lyp/6-31G(d)
 -----------------

 -----------------
 SM39.n.13.pdb.xyz
 -----------------
 Symbolic Z-matrix:
 Charge =  0 Multiplicity = 1

 SCF Done:  E(RB3LYP) =  -1811.12154872     A.U. after   16 cycles
 Normal termination of Gaussian 09 at Sat Aug  8 00:29:08 2020.
 Gaussian 09:  AM64L-G09RevD.01 24-Apr-2013

 ----------------------------------------------------------------------
 #p b3lyp/6-31G(d) scrf=(iefpcm,read,solvent=n-Octanol) geom=allcheck g
 uess=read
 ----------------------------------------------------------------------

 Structure from the checkpoint file:  "SM39.n.13.pdb.xyz.mst.n.o.chk"
 -----------------
 SM39.n.13.pdb.xyz
 -----------------
 Charge =  0 Multiplicity = 1

                         Standard orientation:
 ---------------------------------------------------------------------
 Center     Atomic      Atomic             Coordinates (Angstroms)
 Number     Number       Type             X           Y           Z
 ---------------------------------------------------------------------
      1          8           0        2.562183    0.997844    1.617653
      2         16           0        2.151427   -0.403885    1.430487
      3          7           0        0.561223   -0.495179    0.878423
      4          6           0       -0.141583    0.598374    0.199519
      5          6           0        0.629630    1.190232   -1.027467
      6         16           0        0.074920    2.865416   -0.542201
      7          6           0       -0.288766    1.950758    0.990750
      8          8           0        1.157674    3.851938   -0.431517
      9          8           0       -1.167776    3.231884   -1.245846
     10          6           0       -1.513624    0.068579   -0.260847
     11          6           0       -2.454623   -0.391470    0.866064
     12          6           0       -3.812040   -0.799145    0.337243
     13          6           0       -4.103787   -2.145012    0.083818
     14          6           0       -5.343744   -2.522888   -0.432984
     15          6           0       -6.312471   -1.555757   -0.703314
     16          6           0       -6.033826   -0.210942   -0.453526
     17          6           0       -4.793269    0.161889    0.062848
     18          6           0        3.114517   -1.059598    0.074397
     19          6           0        2.780906   -2.299331   -0.476531
     20          6           0        3.586412   -2.821390   -1.485041
     21          6           0        4.709281   -2.113441   -1.925551
     22          6           0        5.033362   -0.879901   -1.359398
     23          6           0        4.234624   -0.344345   -0.348648
     24          8           0        2.194279   -1.341585    2.558368
     25          1           0        0.010956   -0.948255    1.605077
     26          1           0        0.290970    0.865457   -2.010503
     27          1           0        1.715980    1.140557   -0.946719
     28          1           0       -1.264687    2.167395    1.422669
     29          1           0        0.519840    2.110290    1.702803
     30          1           0       -1.343547   -0.758236   -0.958715
     31          1           0       -1.994705    0.874552   -0.823113
     32          1           0       -2.570078    0.416067    1.599015
     33          1           0       -2.018414   -1.244259    1.398668
     34          1           0       -3.353278   -2.899923    0.298898
     35          1           0       -5.552563   -3.571428   -0.619619
     36          1           0       -7.278314   -1.848397   -1.102464
     37          1           0       -6.783188    0.547334   -0.655288
     38          1           0       -4.585733    1.210383    0.259891
     39          1           0        1.904320   -2.834239   -0.132182
     40          1           0        3.337759   -3.778663   -1.929031
     41          1           0        5.330150   -2.526499   -2.712030
     42          1           0        5.904864   -0.332673   -1.701917
     43          1           0        4.462676    0.611969    0.105767
 ---------------------------------------------------------------------

 SCF Done:  E(RB3LYP) =  -1811.15489912     A.U. after   11 cycles

 The electronic state is 1-A.
 Alpha  occ. eigenvalues --  -89.13234 -89.09868 -19.16307 -19.16063 -19.15496
 Alpha  occ. eigenvalues --  -19.15215 -14.38666 -10.28454 -10.23987 -10.23665
 Alpha  occ. eigenvalues --  -10.23018 -10.22172 -10.22016 -10.21434 -10.21325
 Alpha  occ. eigenvalues --  -10.21271 -10.20927 -10.20657 -10.20306 -10.19328
 Alpha  occ. eigenvalues --  -10.19317 -10.19251 -10.19237 -10.19168  -8.15733
 Alpha  occ. eigenvalues --   -8.12932  -6.12251  -6.12161  -6.12009  -6.09366
 Alpha  occ. eigenvalues --   -6.09284  -6.09205  -1.12922  -1.10802  -1.01906
 Alpha  occ. eigenvalues --   -1.00517  -0.95624  -0.88404  -0.86551  -0.85943
 Alpha  occ. eigenvalues --   -0.80264  -0.78804  -0.77164  -0.74737  -0.74572
 Alpha  occ. eigenvalues --   -0.72867  -0.69797  -0.67121  -0.63357  -0.62786
 Alpha  occ. eigenvalues --   -0.61050  -0.60801  -0.58707  -0.57865  -0.55798
 Alpha  occ. eigenvalues --   -0.53967  -0.52818  -0.51524  -0.50323  -0.50041
 Alpha  occ. eigenvalues --   -0.49448  -0.48337  -0.47485  -0.46593  -0.46483
 Alpha  occ. eigenvalues --   -0.46293  -0.45383  -0.45083  -0.44631  -0.44207
 Alpha  occ. eigenvalues --   -0.43287  -0.42360  -0.42189  -0.41161  -0.39744
 Alpha  occ. eigenvalues --   -0.39147  -0.38829  -0.38204  -0.36971  -0.36813
 Alpha  occ. eigenvalues --   -0.36210  -0.35354  -0.34219  -0.34205  -0.33741
 Alpha  occ. eigenvalues --   -0.33208  -0.32669  -0.32475  -0.32007  -0.30969
 Alpha  occ. eigenvalues --   -0.30292  -0.28648  -0.27626  -0.27061  -0.25426
 Alpha  occ. eigenvalues --   -0.24783
 Alpha virt. eigenvalues --   -0.04646  -0.02545  -0.00656  -0.00488   0.02778
 Alpha virt. eigenvalues --    0.04281   0.05134   0.05277   0.05760   0.06709
 Alpha virt. eigenvalues --    0.07416   0.08225   0.09237   0.09668   0.10670

 Mulliken charges:
               1
     1  O   -0.562386
     2  S    1.214916
     3  N   -0.747923
     4  C    0.188157
     5  C   -0.502592
     6  S    1.109324
     7  C   -0.501437
     8  O   -0.524577
     9  O   -0.550990
    10  C   -0.286137
    11  C   -0.388187
    12  C    0.168872
    13  C   -0.187644
    14  C   -0.138478
    15  C   -0.139507
    16  C   -0.138981
    17  C   -0.184589
    18  C   -0.155370
    19  C   -0.125971
    20  C   -0.133584
    21  C   -0.121305
    22  C   -0.129990
    23  C   -0.145493
    24  O   -0.541284
    25  H    0.379543
    26  H    0.225565
    27  H    0.224174
    28  H    0.218227
    29  H    0.244844
    30  H    0.169520
    31  H    0.188060
    32  H    0.163144
    33  H    0.153197
    34  H    0.134711
    35  H    0.142429
    36  H    0.141730
    37  H    0.143490
    38  H    0.137320
    39  H    0.175263
    40  H    0.165033
    41  H    0.164321
    42  H    0.165902
    43  H    0.188682
 Sum of Mulliken charges =   0.00000

 Dipole moment (field-independent basis, Debye):
    X=             -0.6695    Y=             -6.9886    Z=             -2.7520  Tot=              7.5407
 Quadrupole moment (field-independent basis, Debye-Ang):
   XX=           -137.0426   YY=           -170.0964   ZZ=           -159.1481
   XY=             -5.5998   XZ=            -20.4001   YZ=             15.4296

 Normal termination of Gaussian 09 at Sat Aug  8 00:35:15 2020.
