 Gaussian 09, Revision D.01,

 -----------------
 #p b3lyp/6-31G(d)
 -----------------

 ----------------
 SM39.n.3.pdb.xyz
 ----------------
 Symbolic Z-matrix:
 Charge =  0 Multiplicity = 1

 SCF Done:  E(RB3LYP) =  -1811.11789197     A.U. after   16 cycles
 Normal termination of Gaussian 09 at Sat Aug  8 00:03:01 2020.
 Gaussian 09:  AM64L-G09RevD.01 24-Apr-2013

 ----------------------------------------------------------------------
 #p b3lyp/6-31G(d) scrf=(iefpcm,read,solvent=Water) geom=allcheck guess
 =read
 ----------------------------------------------------------------------

 Structure from the checkpoint file:  "SM39.n.3.pdb.xyz.mst.n.w.chk"
 ----------------
 SM39.n.3.pdb.xyz
 ----------------
 Charge =  0 Multiplicity = 1

                         Standard orientation:
 ---------------------------------------------------------------------
 Center     Atomic      Atomic             Coordinates (Angstroms)
 Number     Number       Type             X           Y           Z
 ---------------------------------------------------------------------
      1          8           0       -2.439977    0.513640    2.600835
      2         16           0       -2.110098    0.861515    1.210853
      3          7           0       -0.455248    0.625749    1.124309
      4          6           0        0.407623    0.875504   -0.043844
      5          6           0        1.874527    1.074561    0.488669
      6         16           0        2.005052    2.633949   -0.439686
      7          6           0        0.221611    2.324185   -0.613543
      8          8           0        2.341177    3.811172    0.383997
      9          8           0        2.724363    2.449126   -1.717776
     10          6           0        0.313652   -0.175197   -1.171932
     11          6           0        0.496149   -1.656867   -0.785176
     12          6           0        1.864992   -2.057540   -0.277562
     13          6           0        2.039555   -2.459451    1.052370
     14          6           0        3.295899   -2.835471    1.533185
     15          6           0        4.402922   -2.816434    0.683145
     16          6           0        4.241747   -2.427488   -0.649167
     17          6           0        2.983499   -2.055255   -1.124687
     18          6           0       -2.990974   -0.278477    0.148538
     19          6           0       -3.166380   -1.602760    0.559165
     20          6           0       -3.858793   -2.477219   -0.276043
     21          6           0       -4.367993   -2.027998   -1.497780
     22          6           0       -4.193124   -0.698762   -1.890514
     23          6           0       -3.500709    0.187776   -1.064798
     24          8           0       -2.379298    2.215318    0.705612
     25          1           0       -0.191778   -0.205741    1.654103
     26          1           0        2.605881    0.326211    0.193644
     27          1           0        1.912390    1.271629    1.560583
     28          1           0       -0.139578    2.400097   -1.637112
     29          1           0       -0.343953    2.973100    0.050762
     30          1           0        1.049282    0.097754   -1.936370
     31          1           0       -0.667117   -0.071166   -1.644843
     32          1           0        0.263707   -2.237868   -1.684926
     33          1           0       -0.252915   -1.942406   -0.041184
     34          1           0        1.176762   -2.478677    1.711727
     35          1           0        3.408517   -3.142280    2.567565
     36          1           0        5.380085   -3.107240    1.051959
     37          1           0        5.095857   -2.418127   -1.320025
     38          1           0        2.869030   -1.761505   -2.164728
     39          1           0       -2.780696   -1.938391    1.514766
     40          1           0       -4.005645   -3.507350    0.030192
     41          1           0       -4.907901   -2.714349   -2.140570
     42          1           0       -4.597121   -0.349227   -2.833692
     43          1           0       -3.362674    1.225181   -1.342182
 ---------------------------------------------------------------------

 SCF Done:  E(RB3LYP) =  -1811.14432156     A.U. after   11 cycles

 The electronic state is 1-A.
 Alpha  occ. eigenvalues --  -89.13304 -89.10050 -19.16245 -19.15983 -19.15818
 Alpha  occ. eigenvalues --  -19.15593 -14.38689 -10.28239 -10.23781 -10.23144
 Alpha  occ. eigenvalues --  -10.23031 -10.21850 -10.21705 -10.21021 -10.20923
 Alpha  occ. eigenvalues --  -10.20895 -10.20518 -10.20262 -10.19907 -10.19443
 Alpha  occ. eigenvalues --  -10.19409 -10.19317 -10.19244 -10.19220  -8.15751
 Alpha  occ. eigenvalues --   -8.13121  -6.12254  -6.12196  -6.12043  -6.09570
 Alpha  occ. eigenvalues --   -6.09471  -6.09376  -1.12908  -1.10897  -1.01891
 Alpha  occ. eigenvalues --   -1.00600  -0.95428  -0.88042  -0.86458  -0.85842
 Alpha  occ. eigenvalues --   -0.79751  -0.78381  -0.76791  -0.74799  -0.74406
 Alpha  occ. eigenvalues --   -0.72719  -0.69766  -0.66994  -0.63262  -0.62717
 Alpha  occ. eigenvalues --   -0.60876  -0.60642  -0.58388  -0.57745  -0.56381
 Alpha  occ. eigenvalues --   -0.53598  -0.52320  -0.51549  -0.50364  -0.49625
 Alpha  occ. eigenvalues --   -0.48739  -0.48251  -0.47400  -0.46720  -0.46024
 Alpha  occ. eigenvalues --   -0.45880  -0.45527  -0.45100  -0.44444  -0.44242
 Alpha  occ. eigenvalues --   -0.42950  -0.42610  -0.42088  -0.40529  -0.39375
 Alpha  occ. eigenvalues --   -0.38939  -0.38435  -0.37413  -0.37064  -0.36546
 Alpha  occ. eigenvalues --   -0.36179  -0.35083  -0.34144  -0.33828  -0.33683
 Alpha  occ. eigenvalues --   -0.33515  -0.32776  -0.32259  -0.32165  -0.31067
 Alpha  occ. eigenvalues --   -0.29979  -0.29777  -0.27214  -0.26864  -0.25648
 Alpha  occ. eigenvalues --   -0.24777
 Alpha virt. eigenvalues --   -0.04488  -0.02306  -0.01185  -0.00659   0.02679
 Alpha virt. eigenvalues --    0.03713   0.04657   0.05568   0.06013   0.07355
 Alpha virt. eigenvalues --    0.08220   0.08810   0.09851   0.10308   0.10624

 Mulliken charges:
               1
     1  O   -0.568437
     2  S    1.184377
     3  N   -0.709806
     4  C    0.166247
     5  C   -0.499683
     6  S    1.107290
     7  C   -0.495028
     8  O   -0.554179
     9  O   -0.570386
    10  C   -0.285902
    11  C   -0.369116
    12  C    0.154350
    13  C   -0.209086
    14  C   -0.141808
    15  C   -0.149712
    16  C   -0.142494
    17  C   -0.199259
    18  C   -0.141333
    19  C   -0.150379
    20  C   -0.134541
    21  C   -0.125419
    22  C   -0.134216
    23  C   -0.149098
    24  O   -0.572521
    25  H    0.397563
    26  H    0.241612
    27  H    0.237413
    28  H    0.235993
    29  H    0.251360
    30  H    0.175982
    31  H    0.170650
    32  H    0.179578
    33  H    0.149765
    34  H    0.145875
    35  H    0.153401
    36  H    0.152244
    37  H    0.153708
    38  H    0.150802
    39  H    0.187588
    40  H    0.173349
    41  H    0.171831
    42  H    0.173016
    43  H    0.188408
 Sum of Mulliken charges =   0.00000

 Dipole moment (field-independent basis, Debye):
    X=             -2.9994    Y=            -10.3712    Z=             -3.3418  Tot=             11.3016
 Quadrupole moment (field-independent basis, Debye-Ang):
   XX=           -154.1194   YY=           -172.3237   ZZ=           -154.4828
   XY=             -5.5692   XZ=             24.9480   YZ=             -5.0745

 Normal termination of Gaussian 09 at Sat Aug  8 00:10:15 2020.
