 Gaussian 09, Revision D.01,

 -----------------
 #p b3lyp/6-31G(d)
 -----------------

 -----------------
 SM39.n.15.pdb.xyz
 -----------------
 Symbolic Z-matrix:
 Charge =  0 Multiplicity = 1

 SCF Done:  E(RB3LYP) =  -1811.11942362     A.U. after   16 cycles
 Normal termination of Gaussian 09 at Fri Aug  7 23:53:24 2020.
 Gaussian 09:  AM64L-G09RevD.01 24-Apr-2013

 ----------------------------------------------------------------------
 #p b3lyp/6-31G(d) scrf=(iefpcm,read,solvent=Water) geom=allcheck guess
 =read
 ----------------------------------------------------------------------

 Structure from the checkpoint file:  "SM39.n.15.pdb.xyz.mst.n.w.chk"
 -----------------
 SM39.n.15.pdb.xyz
 -----------------
 Charge =  0 Multiplicity = 1

                         Standard orientation:
 ---------------------------------------------------------------------
 Center     Atomic      Atomic             Coordinates (Angstroms)
 Number     Number       Type             X           Y           Z
 ---------------------------------------------------------------------
      1          8           0        0.472647   -2.142545    0.419125
      2         16           0        1.294205   -1.642033   -0.696069
      3          7           0        0.718384   -0.168615   -1.273842
      4          6           0       -0.222426    0.671402   -0.499678
      5          6           0       -0.184347    2.090130   -1.155884
      6         16           0        0.942898    2.670352    0.155545
      7          6           0        0.413665    1.075124    0.869370
      8          8           0        2.356140    2.650412   -0.272075
      9          8           0        0.454787    3.850673    0.891840
     10          6           0       -1.624991    0.039760   -0.429303
     11          6           0       -2.714519    0.855983    0.290550
     12          6           0       -4.035675    0.119744    0.303674
     13          6           0       -4.364412   -0.742369    1.358241
     14          6           0       -5.568604   -1.448720    1.357946
     15          6           0       -6.466471   -1.302593    0.297531
     16          6           0       -6.150512   -0.445705   -0.758883
     17          6           0       -4.945579    0.258868   -0.752731
     18          6           0        2.905024   -1.248004   -0.025430
     19          6           0        3.219165   -1.702604    1.255867
     20          6           0        4.496581   -1.458462    1.762186
     21          6           0        5.437120   -0.776601    0.989231
     22          6           0        5.108225   -0.332124   -0.296174
     23          6           0        3.837311   -0.568263   -0.814890
     24          8           0        1.467789   -2.475447   -1.896727
     25          1           0        0.413322   -0.304496   -2.239767
     26          1           0       -1.130623    2.624394   -1.084323
     27          1           0        0.227726    2.149808   -2.163315
     28          1           0       -0.326228    1.256129    1.647935
     29          1           0        1.229240    0.464072    1.248536
     30          1           0       -1.516303   -0.931802    0.055787
     31          1           0       -1.944389   -0.149340   -1.461138
     32          1           0       -2.845419    1.824495   -0.201705
     33          1           0       -2.406908    1.060258    1.321481
     34          1           0       -3.672210   -0.857049    2.187838
     35          1           0       -5.806640   -2.108826    2.185869
     36          1           0       -7.403676   -1.849853    0.296183
     37          1           0       -6.844082   -0.320791   -1.584688
     38          1           0       -4.708340    0.928537   -1.574577
     39          1           0        2.471172   -2.227180    1.837529
     40          1           0        4.752442   -1.801042    2.758864
     41          1           0        6.427592   -0.587178    1.387020
     42          1           0        5.841065    0.199256   -0.893491
     43          1           0        3.571697   -0.220328   -1.805805
 ---------------------------------------------------------------------

 SCF Done:  E(RB3LYP) =  -1811.14707871     A.U. after   11 cycles

 The electronic state is 1-A.
 Alpha  occ. eigenvalues --  -89.12969 -89.09964 -19.16088 -19.15894 -19.15725
 Alpha  occ. eigenvalues --  -19.15431 -14.37841 -10.27936 -10.23443 -10.23358
 Alpha  occ. eigenvalues --  -10.23275 -10.21519 -10.21456 -10.20779 -10.20632
 Alpha  occ. eigenvalues --  -10.20614 -10.19983 -10.19843 -10.19680 -10.19110
 Alpha  occ. eigenvalues --  -10.19100 -10.18964 -10.18949 -10.18945  -8.15456
 Alpha  occ. eigenvalues --   -8.13024  -6.11966  -6.11901  -6.11727  -6.09470
 Alpha  occ. eigenvalues --   -6.09375  -6.09281  -1.12581  -1.10820  -1.01595
 Alpha  occ. eigenvalues --   -1.00508  -0.95128  -0.87788  -0.86082  -0.85503
 Alpha  occ. eigenvalues --   -0.79600  -0.78248  -0.76499  -0.74459  -0.74075
 Alpha  occ. eigenvalues --   -0.72853  -0.69529  -0.66302  -0.62698  -0.62194
 Alpha  occ. eigenvalues --   -0.60572  -0.60288  -0.58530  -0.57446  -0.55247
 Alpha  occ. eigenvalues --   -0.53432  -0.52390  -0.51138  -0.50366  -0.49536
 Alpha  occ. eigenvalues --   -0.49175  -0.47980  -0.47019  -0.46659  -0.45905
 Alpha  occ. eigenvalues --   -0.45557  -0.45261  -0.44456  -0.43942  -0.43687
 Alpha  occ. eigenvalues --   -0.42962  -0.41931  -0.41779  -0.40946  -0.39212
 Alpha  occ. eigenvalues --   -0.38515  -0.38131  -0.37931  -0.36722  -0.36264
 Alpha  occ. eigenvalues --   -0.35555  -0.35102  -0.34083  -0.33834  -0.33712
 Alpha  occ. eigenvalues --   -0.33122  -0.32705  -0.32292  -0.31764  -0.31031
 Alpha  occ. eigenvalues --   -0.29716  -0.28888  -0.27010  -0.26579  -0.25296
 Alpha  occ. eigenvalues --   -0.24482
 Alpha virt. eigenvalues --   -0.04071  -0.01901  -0.00416  -0.00376   0.03298
 Alpha virt. eigenvalues --    0.03690   0.04853   0.05979   0.06100   0.06987
 Alpha virt. eigenvalues --    0.08321   0.09278   0.09482   0.10331   0.10799

 Mulliken charges:
               1
     1  O   -0.574191
     2  S    1.214887
     3  N   -0.734571
     4  C    0.156852
     5  C   -0.488427
     6  S    1.114060
     7  C   -0.500054
     8  O   -0.556886
     9  O   -0.557019
    10  C   -0.275309
    11  C   -0.384618
    12  C    0.159257
    13  C   -0.195663
    14  C   -0.149630
    15  C   -0.150903
    16  C   -0.149729
    17  C   -0.194966
    18  C   -0.159751
    19  C   -0.142872
    20  C   -0.137723
    21  C   -0.126976
    22  C   -0.141155
    23  C   -0.116602
    24  O   -0.565793
    25  H    0.410542
    26  H    0.232096
    27  H    0.239314
    28  H    0.233973
    29  H    0.235404
    30  H    0.189199
    31  H    0.166814
    32  H    0.166325
    33  H    0.166688
    34  H    0.145483
    35  H    0.149952
    36  H    0.148899
    37  H    0.149866
    38  H    0.145233
    39  H    0.186736
    40  H    0.169878
    41  H    0.169283
    42  H    0.170103
    43  H    0.181995
 Sum of Mulliken charges =   0.00000

 Dipole moment (field-independent basis, Debye):
    X=             -1.2822    Y=             -0.2282    Z=             -0.6804  Tot=              1.4693
 Quadrupole moment (field-independent basis, Debye-Ang):
   XX=           -131.3269   YY=           -188.6590   ZZ=           -140.8739
   XY=             -7.6167   XZ=             10.8057   YZ=            -18.5054

 Normal termination of Gaussian 09 at Fri Aug  7 23:59:49 2020.
