 Gaussian 09, Revision D.01,

 -----------------
 #p b3lyp/6-31G(d)
 -----------------

 ----------------
 SM39.n.3.pdb.xyz
 ----------------
 Symbolic Z-matrix:
 Charge =  0 Multiplicity = 1

 SCF Done:  E(RB3LYP) =  -1811.11889098     A.U. after   15 cycles
 Normal termination of Gaussian 09 at Sat Aug  8 00:33:30 2020.
 Gaussian 09:  AM64L-G09RevD.01 24-Apr-2013

 ----------------------------------------------------------------------
 #p b3lyp/6-31G(d) scrf=(iefpcm,read,solvent=n-Octanol) geom=allcheck g
 uess=read
 ----------------------------------------------------------------------

 Structure from the checkpoint file:  "SM39.n.3.pdb.xyz.mst.n.o.chk"
 ----------------
 SM39.n.3.pdb.xyz
 ----------------
 Charge =  0 Multiplicity = 1

                         Standard orientation:
 ---------------------------------------------------------------------
 Center     Atomic      Atomic             Coordinates (Angstroms)
 Number     Number       Type             X           Y           Z
 ---------------------------------------------------------------------
      1          8           0       -2.577794    0.848740    2.475956
      2         16           0       -2.169163    1.028982    1.080513
      3          7           0       -0.517879    0.741575    1.104949
      4          6           0        0.421231    0.924827   -0.010656
      5          6           0        1.865530    1.054967    0.594925
      6         16           0        2.141963    2.567578   -0.386677
      7          6           0        0.343868    2.373728   -0.605001
      8          8           0        2.532883    3.741117    0.408116
      9          8           0        2.869740    2.263253   -1.633097
     10          6           0        0.328398   -0.131690   -1.131766
     11          6           0        0.429689   -1.608755   -0.709781
     12          6           0        1.789461   -2.077592   -0.234183
     13          6           0        1.932447   -2.687932    1.016692
     14          6           0        3.178295   -3.138652    1.459137
     15          6           0        4.303519   -2.983796    0.650227
     16          6           0        4.174627   -2.380435   -0.603910
     17          6           0        2.927335   -1.935566   -1.040999
     18          6           0       -3.010291   -0.223819    0.114886
     19          6           0       -3.251994   -1.478171    0.680154
     20          6           0       -3.908010   -2.442078   -0.083189
     21          6           0       -4.318884   -2.147569   -1.385711
     22          6           0       -4.084309   -0.884164   -1.931250
     23          6           0       -3.426636    0.089721   -1.179339
     24          8           0       -2.358260    2.304514    0.380750
     25          1           0       -0.290923   -0.018538    1.741974
     26          1           0        2.559619    0.246803    0.371765
     27          1           0        1.855931    1.299842    1.658680
     28          1           0        0.013423    2.456572   -1.638693
     29          1           0       -0.201263    3.063042    0.035408
     30          1           0        1.108982    0.094594   -1.866176
     31          1           0       -0.625333    0.012293   -1.647490
     32          1           0        0.133622   -2.204010   -1.581855
     33          1           0       -0.313983   -1.828475    0.062476
     34          1           0        1.056788   -2.815444    1.645523
     35          1           0        3.267144   -3.608238    2.432434
     36          1           0        5.274043   -3.329422    0.991502
     37          1           0        5.043604   -2.259438   -1.241846
     38          1           0        2.836092   -1.468047   -2.017760
     39          1           0       -2.951875   -1.686197    1.699817
     40          1           0       -4.104786   -3.419844    0.342235
     41          1           0       -4.831057   -2.902711   -1.972046
     42          1           0       -4.417779   -0.652327   -2.936888
     43          1           0       -3.250109    1.084409   -1.570272
 ---------------------------------------------------------------------

 SCF Done:  E(RB3LYP) =  -1811.15254845     A.U. after   11 cycles

 The electronic state is 1-A.
 Alpha  occ. eigenvalues --  -89.13132 -89.09714 -19.16033 -19.15816 -19.15418
 Alpha  occ. eigenvalues --  -19.15143 -14.38722 -10.28388 -10.23949 -10.23274
 Alpha  occ. eigenvalues --  -10.23058 -10.22219 -10.22033 -10.21495 -10.21413
 Alpha  occ. eigenvalues --  -10.21376 -10.20848 -10.20541 -10.20374 -10.19701
 Alpha  occ. eigenvalues --  -10.19665 -10.19589 -10.19490 -10.19474  -8.15573
 Alpha  occ. eigenvalues --   -8.12778  -6.12085  -6.12007  -6.11870  -6.09213
 Alpha  occ. eigenvalues --   -6.09129  -6.09049  -1.12845  -1.10643  -1.01909
 Alpha  occ. eigenvalues --   -1.00370  -0.95469  -0.88396  -0.86637  -0.85882
 Alpha  occ. eigenvalues --   -0.80086  -0.78664  -0.77224  -0.75101  -0.74620
 Alpha  occ. eigenvalues --   -0.72789  -0.69817  -0.67209  -0.63522  -0.63165
 Alpha  occ. eigenvalues --   -0.61173  -0.60750  -0.58614  -0.57968  -0.56712
 Alpha  occ. eigenvalues --   -0.53737  -0.52504  -0.51716  -0.50718  -0.49687
 Alpha  occ. eigenvalues --   -0.48641  -0.48326  -0.47559  -0.46696  -0.46502
 Alpha  occ. eigenvalues --   -0.45900  -0.45891  -0.44974  -0.44717  -0.44529
 Alpha  occ. eigenvalues --   -0.43242  -0.42895  -0.42406  -0.40642  -0.39706
 Alpha  occ. eigenvalues --   -0.39281  -0.38783  -0.37796  -0.37248  -0.37020
 Alpha  occ. eigenvalues --   -0.36019  -0.35189  -0.34481  -0.34046  -0.33479
 Alpha  occ. eigenvalues --   -0.33311  -0.32381  -0.32165  -0.31959  -0.30696
 Alpha  occ. eigenvalues --   -0.29957  -0.29410  -0.27612  -0.27062  -0.25838
 Alpha  occ. eigenvalues --   -0.24943
 Alpha virt. eigenvalues --   -0.04738  -0.02736  -0.01380  -0.00807   0.02572
 Alpha virt. eigenvalues --    0.03816   0.04904   0.05559   0.06056   0.07249
 Alpha virt. eigenvalues --    0.08106   0.09007   0.09451   0.10055   0.10311

 Mulliken charges:
               1
     1  O   -0.544321
     2  S    1.190150
     3  N   -0.711731
     4  C    0.182500
     5  C   -0.512761
     6  S    1.101808
     7  C   -0.486989
     8  O   -0.527559
     9  O   -0.550011
    10  C   -0.293961
    11  C   -0.361335
    12  C    0.158363
    13  C   -0.202503
    14  C   -0.131543
    15  C   -0.140326
    16  C   -0.133301
    17  C   -0.197415
    18  C   -0.138608
    19  C   -0.150480
    20  C   -0.129944
    21  C   -0.121765
    22  C   -0.129855
    23  C   -0.151616
    24  O   -0.558914
    25  H    0.374894
    26  H    0.239222
    27  H    0.224787
    28  H    0.220779
    29  H    0.244470
    30  H    0.177743
    31  H    0.163371
    32  H    0.175825
    33  H    0.141930
    34  H    0.133596
    35  H    0.145725
    36  H    0.145101
    37  H    0.147729
    38  H    0.144917
    39  H    0.179817
    40  H    0.165785
    41  H    0.164615
    42  H    0.165809
    43  H    0.186001
 Sum of Mulliken charges =   0.00000

 Dipole moment (field-independent basis, Debye):
    X=             -2.9640    Y=             -9.4704    Z=             -2.2506  Tot=             10.1754
 Quadrupole moment (field-independent basis, Debye-Ang):
   XX=           -156.6553   YY=           -169.2162   ZZ=           -152.1874
   XY=             -3.4117   XZ=             20.7564   YZ=             -6.3362

 Normal termination of Gaussian 09 at Sat Aug  8 00:40:16 2020.
