 Gaussian 09, Revision D.01,

 -----------------
 #p b3lyp/6-31G(d)
 -----------------

 ----------------
 SM39.n.1.pdb.xyz
 ----------------
 Symbolic Z-matrix:
 Charge =  0 Multiplicity = 1

 SCF Done:  E(RB3LYP) =  -1811.12130291     A.U. after   16 cycles
 Normal termination of Gaussian 09 at Fri Aug  7 23:54:31 2020.
 Gaussian 09:  AM64L-G09RevD.01 24-Apr-2013

 ----------------------------------------------------------------------
 #p b3lyp/6-31G(d) scrf=(iefpcm,read,solvent=Water) geom=allcheck guess
 =read
 ----------------------------------------------------------------------

 Structure from the checkpoint file:  "SM39.n.1.pdb.xyz.mst.n.w.chk"
 ----------------
 SM39.n.1.pdb.xyz
 ----------------
 Charge =  0 Multiplicity = 1

                         Standard orientation:
 ---------------------------------------------------------------------
 Center     Atomic      Atomic             Coordinates (Angstroms)
 Number     Number       Type             X           Y           Z
 ---------------------------------------------------------------------
      1          8           0       -0.631025   -2.489155    0.110948
      2         16           0        0.210873   -1.420731   -0.452757
      3          7           0       -0.135831   -0.055500    0.463662
      4          6           0       -0.107880    1.297108   -0.121468
      5          6           0        1.275288    1.608345   -0.789702
      6         16           0        1.414768    3.129773    0.206094
      7          6           0        0.005946    2.336880    1.046103
      8          8           0        2.642381    3.210540    1.019831
      9          8           0        0.997624    4.325944   -0.554379
     10          6           0       -1.266661    1.621994   -1.086063
     11          6           0       -2.687463    1.687268   -0.486843
     12          6           0       -3.314280    0.370497   -0.073979
     13          6           0       -3.588955    0.099286    1.273021
     14          6           0       -4.178898   -1.106945    1.658641
     15          6           0       -4.510279   -2.062419    0.697074
     16          6           0       -4.249924   -1.800353   -0.651064
     17          6           0       -3.660451   -0.595559   -1.031516
     18          6           0        1.921206   -1.782185   -0.073232
     19          6           0        2.319637   -1.924532    1.260218
     20          6           0        3.639615   -2.275048    1.530620
     21          6           0        4.540984   -2.484665    0.481779
     22          6           0        4.126915   -2.342497   -0.843276
     23          6           0        2.806924   -1.991531   -1.129420
     24          8           0        0.139278   -1.122895   -1.893732
     25          1           0       -0.978166   -0.238147    1.010839
     26          1           0        1.268537    1.778059   -1.864922
     27          1           0        2.072928    0.921161   -0.503550
     28          1           0       -0.843103    3.000130    1.199421
     29          1           0        0.333715    1.888252    1.983240
     30          1           0       -1.227520    0.893399   -1.900705
     31          1           0       -1.051229    2.601286   -1.525733
     32          1           0       -3.320943    2.155177   -1.248722
     33          1           0       -2.694837    2.368402    0.370123
     34          1           0       -3.341120    0.844966    2.023741
     35          1           0       -4.382565   -1.295770    2.707453
     36          1           0       -4.970449   -2.999505    0.992304
     37          1           0       -4.511140   -2.533241   -1.407378
     38          1           0       -3.469368   -0.399098   -2.082639
     39          1           0        1.616376   -1.753782    2.066125
     40          1           0        3.965101   -2.383719    2.558772
     41          1           0        5.567347   -2.756019    0.700825
     42          1           0        4.827736   -2.504417   -1.656045
     43          1           0        2.462838   -1.872640   -2.148879
 ---------------------------------------------------------------------

 SCF Done:  E(RB3LYP) =  -1811.14455936     A.U. after   11 cycles

 The electronic state is 1-A.
 Alpha  occ. eigenvalues --  -89.12870 -89.10274 -19.16003 -19.15969 -19.15791
 Alpha  occ. eigenvalues --  -19.15653 -14.37829 -10.27962 -10.23484 -10.23464
 Alpha  occ. eigenvalues --  -10.23359 -10.21589 -10.21463 -10.20818 -10.20696
 Alpha  occ. eigenvalues --  -10.20668 -10.20027 -10.19894 -10.19596 -10.19185
 Alpha  occ. eigenvalues --  -10.19139 -10.19047 -10.18961 -10.18918  -8.15347
 Alpha  occ. eigenvalues --   -8.13334  -6.11862  -6.11788  -6.11620  -6.09781
 Alpha  occ. eigenvalues --   -6.09686  -6.09590  -1.12399  -1.11090  -1.01383
 Alpha  occ. eigenvalues --   -1.00814  -0.95102  -0.87853  -0.86164  -0.85744
 Alpha  occ. eigenvalues --   -0.79453  -0.78210  -0.76568  -0.74541  -0.74023
 Alpha  occ. eigenvalues --   -0.72970  -0.69572  -0.66445  -0.63253  -0.62400
 Alpha  occ. eigenvalues --   -0.60599  -0.60105  -0.58468  -0.57316  -0.55236
 Alpha  occ. eigenvalues --   -0.53510  -0.52289  -0.51435  -0.50797  -0.49248
 Alpha  occ. eigenvalues --   -0.48875  -0.47759  -0.46923  -0.46472  -0.46067
 Alpha  occ. eigenvalues --   -0.45569  -0.45274  -0.45047  -0.44350  -0.43991
 Alpha  occ. eigenvalues --   -0.43332  -0.42040  -0.41627  -0.39681  -0.39161
 Alpha  occ. eigenvalues --   -0.39092  -0.38472  -0.38025  -0.36352  -0.36184
 Alpha  occ. eigenvalues --   -0.36169  -0.34996  -0.34269  -0.33800  -0.33342
 Alpha  occ. eigenvalues --   -0.33070  -0.32967  -0.32160  -0.31650  -0.31246
 Alpha  occ. eigenvalues --   -0.29965  -0.29007  -0.27093  -0.26613  -0.25332
 Alpha  occ. eigenvalues --   -0.24381
 Alpha virt. eigenvalues --   -0.04134  -0.01916  -0.00775  -0.00442   0.02657
 Alpha virt. eigenvalues --    0.03714   0.04473   0.05602   0.06502   0.07503
 Alpha virt. eigenvalues --    0.08915   0.09206   0.09577   0.10423   0.11530

 Mulliken charges:
               1
     1  O   -0.564422
     2  S    1.234309
     3  N   -0.749676
     4  C    0.169457
     5  C   -0.500992
     6  S    1.110857
     7  C   -0.496015
     8  O   -0.551751
     9  O   -0.568080
    10  C   -0.282867
    11  C   -0.370962
    12  C    0.153091
    13  C   -0.223010
    14  C   -0.139121
    15  C   -0.148310
    16  C   -0.137529
    17  C   -0.183852
    18  C   -0.159908
    19  C   -0.133805
    20  C   -0.138736
    21  C   -0.126725
    22  C   -0.136618
    23  C   -0.141860
    24  O   -0.578874
    25  H    0.396484
    26  H    0.242533
    27  H    0.229952
    28  H    0.238572
    29  H    0.238619
    30  H    0.189749
    31  H    0.168245
    32  H    0.176568
    33  H    0.160828
    34  H    0.147471
    35  H    0.150591
    36  H    0.149072
    37  H    0.149747
    38  H    0.146290
    39  H    0.183416
    40  H    0.170919
    41  H    0.169713
    42  H    0.170412
    43  H    0.186218
 Sum of Mulliken charges =   0.00000

 Dipole moment (field-independent basis, Debye):
    X=             -0.2442    Y=             -2.6991    Z=              2.2155  Tot=              3.5005
 Quadrupole moment (field-independent basis, Debye-Ang):
   XX=           -139.7659   YY=           -182.8348   ZZ=           -143.0104
   XY=            -27.1074   XZ=             -5.4576   YZ=             -2.3721

 Normal termination of Gaussian 09 at Sat Aug  8 00:01:27 2020.
