 Gaussian 09, Revision D.01,

 -----------------
 #p b3lyp/6-31G(d)
 -----------------

 -----------------
 SM39.n.14.pdb.xyz
 -----------------
 Symbolic Z-matrix:
 Charge =  0 Multiplicity = 1

 SCF Done:  E(RB3LYP) =  -1811.12208285     A.U. after   16 cycles
 Normal termination of Gaussian 09 at Sat Aug  8 00:29:17 2020.
 Gaussian 09:  AM64L-G09RevD.01 24-Apr-2013

 ----------------------------------------------------------------------
 #p b3lyp/6-31G(d) scrf=(iefpcm,read,solvent=n-Octanol) geom=allcheck g
 uess=read
 ----------------------------------------------------------------------

 Structure from the checkpoint file:  "SM39.n.14.pdb.xyz.mst.n.o.chk"
 -----------------
 SM39.n.14.pdb.xyz
 -----------------
 Charge =  0 Multiplicity = 1

                         Standard orientation:
 ---------------------------------------------------------------------
 Center     Atomic      Atomic             Coordinates (Angstroms)
 Number     Number       Type             X           Y           Z
 ---------------------------------------------------------------------
      1          8           0        2.906588    1.031612    1.247350
      2         16           0        2.262371   -0.280955    1.416336
      3          7           0        0.591531   -0.153496    1.229357
      4          6           0       -0.082336    0.950345    0.537513
      5          6           0        0.458072    1.238068   -0.903334
      6         16           0        0.279269    3.031807   -0.588167
      7          6           0        0.156283    2.394642    1.115644
      8          8           0        1.488615    3.819403   -0.868604
      9          8           0       -1.027437    3.519826   -1.069097
     10          6           0       -1.589454    0.630897    0.519682
     11          6           0       -1.960391   -0.676751   -0.197848
     12          6           0       -3.449743   -0.934412   -0.174269
     13          6           0       -4.291435   -0.375847   -1.145461
     14          6           0       -5.669027   -0.589034   -1.105493
     15          6           0       -6.229785   -1.367354   -0.090728
     16          6           0       -5.401659   -1.931424    0.881746
     17          6           0       -4.023382   -1.714522    0.836908
     18          6           0        2.775745   -1.302949    0.042171
     19          6           0        2.177313   -2.550457   -0.152598
     20          6           0        2.634264   -3.357375   -1.191253
     21          6           0        3.678192   -2.920413   -2.012832
     22          6           0        4.270756   -1.675209   -1.801145
     23          6           0        3.821824   -0.856881   -0.764360
     24          8           0        2.429754   -1.032291    2.665616
     25          1           0        0.158179   -0.400046    2.117640
     26          1           0       -0.141661    0.862323   -1.730032
     27          1           0        1.512683    1.006912   -1.045976
     28          1           0       -0.653052    2.827992    1.703000
     29          1           0        1.123660    2.495961    1.603310
     30          1           0       -2.095989    1.477458    0.044396
     31          1           0       -1.946642    0.597516    1.556622
     32          1           0       -1.428620   -1.506120    0.276651
     33          1           0       -1.609715   -0.630473   -1.234285
     34          1           0       -3.862849    0.226898   -1.940130
     35          1           0       -6.304059   -0.151248   -1.868736
     36          1           0       -7.300720   -1.536482   -0.061048
     37          1           0       -5.826162   -2.542210    1.671062
     38          1           0       -3.383268   -2.160200    1.591972
     39          1           0        1.368362   -2.877303    0.488155
     40          1           0        2.177793   -4.326402   -1.360385
     41          1           0        4.027588   -3.554404   -2.820189
     42          1           0        5.080938   -1.339796   -2.438885
     43          1           0        4.265012    0.114131   -0.577519
 ---------------------------------------------------------------------

 SCF Done:  E(RB3LYP) =  -1811.15613346     A.U. after   11 cycles

 The electronic state is 1-A.
 Alpha  occ. eigenvalues --  -89.13206 -89.09825 -19.16308 -19.16032 -19.15449
 Alpha  occ. eigenvalues --  -19.15173 -14.38589 -10.28411 -10.23963 -10.23649
 Alpha  occ. eigenvalues --  -10.22968 -10.22168 -10.21997 -10.21419 -10.21317
 Alpha  occ. eigenvalues --  -10.21253 -10.20938 -10.20075 -10.19958 -10.19236
 Alpha  occ. eigenvalues --  -10.19212 -10.19114 -10.19090 -10.19074  -8.15706
 Alpha  occ. eigenvalues --   -8.12886  -6.12224  -6.12135  -6.11982  -6.09320
 Alpha  occ. eigenvalues --   -6.09239  -6.09159  -1.12912  -1.10690  -1.01916
 Alpha  occ. eigenvalues --   -1.00412  -0.95543  -0.88389  -0.86441  -0.85788
 Alpha  occ. eigenvalues --   -0.80011  -0.78787  -0.77153  -0.74606  -0.74501
 Alpha  occ. eigenvalues --   -0.72848  -0.69684  -0.66829  -0.63283  -0.62822
 Alpha  occ. eigenvalues --   -0.60961  -0.60703  -0.58472  -0.58030  -0.55834
 Alpha  occ. eigenvalues --   -0.53371  -0.52806  -0.51780  -0.50587  -0.49884
 Alpha  occ. eigenvalues --   -0.49035  -0.48198  -0.47453  -0.46537  -0.46363
 Alpha  occ. eigenvalues --   -0.46069  -0.45519  -0.44936  -0.44622  -0.44096
 Alpha  occ. eigenvalues --   -0.43111  -0.42212  -0.42101  -0.41323  -0.39641
 Alpha  occ. eigenvalues --   -0.38985  -0.38654  -0.38506  -0.36966  -0.36502
 Alpha  occ. eigenvalues --   -0.35757  -0.35370  -0.34073  -0.33993  -0.33752
 Alpha  occ. eigenvalues --   -0.33177  -0.32598  -0.32426  -0.31969  -0.30856
 Alpha  occ. eigenvalues --   -0.30346  -0.28644  -0.27614  -0.26999  -0.25316
 Alpha  occ. eigenvalues --   -0.24592
 Alpha virt. eigenvalues --   -0.04630  -0.02536  -0.00495  -0.00400   0.02918
 Alpha virt. eigenvalues --    0.04232   0.05000   0.05238   0.05895   0.06633
 Alpha virt. eigenvalues --    0.07436   0.08592   0.09152   0.09653   0.10542

 Mulliken charges:
               1
     1  O   -0.563174
     2  S    1.217598
     3  N   -0.741446
     4  C    0.191447
     5  C   -0.503860
     6  S    1.108724
     7  C   -0.495881
     8  O   -0.525735
     9  O   -0.551784
    10  C   -0.307763
    11  C   -0.360302
    12  C    0.167895
    13  C   -0.186693
    14  C   -0.138595
    15  C   -0.140758
    16  C   -0.138368
    17  C   -0.189746
    18  C   -0.153002
    19  C   -0.128716
    20  C   -0.133228
    21  C   -0.121888
    22  C   -0.129518
    23  C   -0.147270
    24  O   -0.542400
    25  H    0.381000
    26  H    0.222988
    27  H    0.225029
    28  H    0.219951
    29  H    0.243323
    30  H    0.188590
    31  H    0.164072
    32  H    0.162600
    33  H    0.154512
    34  H    0.135871
    35  H    0.141975
    36  H    0.140809
    37  H    0.141387
    38  H    0.132782
    39  H    0.176016
    40  H    0.165201
    41  H    0.164075
    42  H    0.165768
    43  H    0.188515
 Sum of Mulliken charges =   0.00000

 Dipole moment (field-independent basis, Debye):
    X=             -2.0721    Y=             -7.2552    Z=             -1.2421  Tot=              7.6469
 Quadrupole moment (field-independent basis, Debye-Ang):
   XX=           -150.3321   YY=           -170.9756   ZZ=           -151.8530
   XY=             -7.9542   XZ=            -20.0018   YZ=             15.2953

 Normal termination of Gaussian 09 at Sat Aug  8 00:35:30 2020.
