 Gaussian 09, Revision D.01,

 -----------------
 #p b3lyp/6-31G(d)
 -----------------

 ----------------
 SM40.n.5.pdb.xyz
 ----------------
 Symbolic Z-matrix:
 Charge =  0 Multiplicity = 1

 SCF Done:  E(RB3LYP) =  -1714.03421779     A.U. after   16 cycles
 Normal termination of Gaussian 09 at Fri Oct  2 06:19:46 2020.
 Gaussian 09:  AM64L-G09RevD.01 24-Apr-2013

 ----------------------------------------------------------------------
 #p b3lyp/6-31G(d) scrf=(iefpcm,read,solvent=n-Octanol) geom=allcheck g
 uess=read
 ----------------------------------------------------------------------

 Structure from the checkpoint file:  "SM40.n.5.pdb.xyz.mst.n.o.chk"
 ----------------
 SM40.n.5.pdb.xyz
 ----------------
 Charge =  0 Multiplicity = 1

                         Standard orientation:
 ---------------------------------------------------------------------
 Center     Atomic      Atomic             Coordinates (Angstroms)
 Number     Number       Type             X           Y           Z
 ---------------------------------------------------------------------
      1          6           0        2.899281   -2.745656   -0.094981
      2          7           0        3.035598   -1.430502    0.544188
      3          6           0        4.088038   -1.387325    1.573848
      4         16           0        3.061910   -0.139412   -0.550914
      5          8           0        3.493693    1.023745    0.224986
      6          8           0        3.753889   -0.500538   -1.790948
      7          7           0        1.481405    0.100543   -1.028734
      8          6           0        0.315244    0.333971   -0.151128
      9          6           0       -0.756961    1.087204   -1.013426
     10         16           0       -0.653058    2.542780    0.083356
     11          8           0       -0.089708    3.729851   -0.577441
     12          8           0       -1.857615    2.689742    0.921879
     13          6           0        0.605820    1.485349    0.874499
     14          6           0       -0.180237   -0.973166    0.497173
     15          6           0       -1.466244   -0.907551    1.352918
     16          6           0       -2.769281   -1.088879    0.596912
     17          6           0       -3.075492   -2.318708   -0.004092
     18          6           0       -4.276236   -2.504102   -0.685951
     19          6           0       -5.198010   -1.457983   -0.778642
     20          6           0       -4.906962   -0.230991   -0.184712
     21          6           0       -3.701869   -0.047836    0.498901
     22          1           0        2.666642   -3.470328    0.687595
     23          1           0        3.813220   -3.053182   -0.614266
     24          1           0        2.073394   -2.735330   -0.805573
     25          1           0        3.820695   -2.119832    2.337259
     26          1           0        4.115906   -0.395709    2.018836
     27          1           0        5.078077   -1.638638    1.174245
     28          1           0        1.277819   -0.446024   -1.862550
     29          1           0       -1.753191    0.645958   -1.016581
     30          1           0       -0.421608    1.327000   -2.021851
     31          1           0        0.354863    1.257334    1.911042
     32          1           0        1.605228    1.907947    0.795197
     33          1           0        0.646372   -1.336721    1.112105
     34          1           0       -0.324175   -1.709805   -0.300042
     35          1           0       -1.504550    0.026432    1.922158
     36          1           0       -1.387377   -1.704614    2.097340
     37          1           0       -2.369735   -3.141394    0.071839
     38          1           0       -4.495854   -3.465176   -1.141004
     39          1           0       -6.134169   -1.600457   -1.308621
     40          1           0       -5.616186    0.587589   -0.249866
     41          1           0       -3.470643    0.912408    0.949763
 ---------------------------------------------------------------------

 SCF Done:  E(RB3LYP) =  -1714.06411306     A.U. after   11 cycles

 The electronic state is 1-A.
 Alpha  occ. eigenvalues --  -89.14418 -89.09791 -19.16024 -19.15860 -19.15380
 Alpha  occ. eigenvalues --  -19.15364 -14.38587 -14.38320 -10.28360 -10.23184
 Alpha  occ. eigenvalues --  -10.23011 -10.23008 -10.22543 -10.20480 -10.20058
 Alpha  occ. eigenvalues --  -10.20008 -10.19296 -10.19160 -10.19143 -10.19079
 Alpha  occ. eigenvalues --  -10.18711  -8.16606  -8.12853  -6.13083  -6.13032
 Alpha  occ. eigenvalues --   -6.13016  -6.09290  -6.09206  -6.09120  -1.13685
 Alpha  occ. eigenvalues --   -1.10710  -1.02003  -1.00452  -0.95692  -0.94440
 Alpha  occ. eigenvalues --   -0.86299  -0.85465  -0.79624  -0.74622  -0.74419
 Alpha  occ. eigenvalues --   -0.73402  -0.73070  -0.71541  -0.68041  -0.63224
 Alpha  occ. eigenvalues --   -0.61051  -0.60354  -0.58514  -0.57490  -0.55572
 Alpha  occ. eigenvalues --   -0.53677  -0.51832  -0.51539  -0.50616  -0.49294
 Alpha  occ. eigenvalues --   -0.48872  -0.47572  -0.46590  -0.46544  -0.45723
 Alpha  occ. eigenvalues --   -0.45203  -0.44898  -0.43968  -0.43296  -0.42662
 Alpha  occ. eigenvalues --   -0.42000  -0.41621  -0.41323  -0.40786  -0.40209
 Alpha  occ. eigenvalues --   -0.39452  -0.37135  -0.36607  -0.36029  -0.35650
 Alpha  occ. eigenvalues --   -0.34189  -0.34021  -0.33795  -0.33311  -0.32762
 Alpha  occ. eigenvalues --   -0.32375  -0.31925  -0.30682  -0.29647  -0.29377
 Alpha  occ. eigenvalues --   -0.26086  -0.25323  -0.24575
 Alpha virt. eigenvalues --   -0.00768  -0.00467   0.02540   0.03471   0.04544
 Alpha virt. eigenvalues --    0.05340   0.05795   0.06415   0.07840   0.08583
 Alpha virt. eigenvalues --    0.09139   0.09976   0.10600   0.11364   0.12068

 Mulliken charges:
               1
     1  C   -0.323868
     2  N   -0.526042
     3  C   -0.322820
     4  S    1.321115
     5  O   -0.561091
     6  O   -0.541340
     7  N   -0.722274
     8  C    0.181638
     9  C   -0.511018
    10  S    1.117286
    11  O   -0.527809
    12  O   -0.549006
    13  C   -0.520666
    14  C   -0.286770
    15  C   -0.378197
    16  C    0.148538
    17  C   -0.185841
    18  C   -0.137937
    19  C   -0.140454
    20  C   -0.138110
    21  C   -0.218712
    22  H    0.183607
    23  H    0.179690
    24  H    0.174435
    25  H    0.179194
    26  H    0.201785
    27  H    0.167054
    28  H    0.386383
    29  H    0.233676
    30  H    0.227232
    31  H    0.220548
    32  H    0.262708
    33  H    0.184975
    34  H    0.154151
    35  H    0.165914
    36  H    0.170398
    37  H    0.134296
    38  H    0.141172
    39  H    0.140694
    40  H    0.142275
    41  H    0.173188
 Sum of Mulliken charges =   0.00000

 Dipole moment (field-independent basis, Debye):
    X=             -0.6953    Y=             -9.4672    Z=              1.3066  Tot=              9.5822
 Quadrupole moment (field-independent basis, Debye-Ang):
   XX=           -147.9646   YY=           -151.1081   ZZ=           -135.5750
   XY=             -6.7444   XZ=             18.2882   YZ=              0.2838

 Normal termination of Gaussian 09 at Fri Oct  2 06:24:39 2020.
