 Gaussian 09, Revision D.01,

 -----------------
 #p b3lyp/6-31G(d)
 -----------------

 -----------------
 SM40.n.28.pdb.xyz
 -----------------
 Symbolic Z-matrix:
 Charge =  0 Multiplicity = 1

 SCF Done:  E(RB3LYP) =  -1714.04080166     A.U. after   15 cycles
 Normal termination of Gaussian 09 at Fri Oct  2 06:19:27 2020.
 Gaussian 09:  AM64L-G09RevD.01 24-Apr-2013

 ----------------------------------------------------------------------
 #p b3lyp/6-31G(d) scrf=(iefpcm,read,solvent=n-Octanol) geom=allcheck g
 uess=read
 ----------------------------------------------------------------------

 Structure from the checkpoint file:  "SM40.n.28.pdb.xyz.mst.n.o.chk"
 -----------------
 SM40.n.28.pdb.xyz
 -----------------
 Charge =  0 Multiplicity = 1

                         Standard orientation:
 ---------------------------------------------------------------------
 Center     Atomic      Atomic             Coordinates (Angstroms)
 Number     Number       Type             X           Y           Z
 ---------------------------------------------------------------------
      1          6           0       -2.943484   -1.761443   -2.084081
      2          7           0       -2.717795   -0.678787   -1.110947
      3          6           0       -3.752727    0.365496   -1.137580
      4         16           0       -2.336077   -1.237063    0.434240
      5          8           0       -3.525122   -1.537567    1.242460
      6          8           0       -1.315721   -2.271633    0.238640
      7          7           0       -1.711897    0.165113    1.114323
      8          6           0       -0.279106    0.528956    1.016096
      9          6           0       -0.186535    2.041754    1.403595
     10         16           0       -0.019853    2.494618   -0.359048
     11          8           0       -1.282259    3.004303   -0.923170
     12          8           0        1.237463    3.201776   -0.654981
     13          6           0        0.121633    0.681285   -0.487745
     14          6           0        0.600318   -0.391771    1.882335
     15          6           0        2.116205   -0.114993    1.910611
     16          6           0        2.898657   -0.597867    0.705199
     17          6           0        3.725230    0.278911   -0.006483
     18          6           0        4.471281   -0.164958   -1.098359
     19          6           0        4.403108   -1.500489   -1.494520
     20          6           0        3.582497   -2.385966   -0.792726
     21          6           0        2.838354   -1.937177    0.296477
     22          1           0       -2.950986   -1.307265   -3.076387
     23          1           0       -3.898301   -2.276289   -1.922995
     24          1           0       -2.125659   -2.476961   -2.023220
     25          1           0       -3.784842    0.762281   -2.153598
     26          1           0       -3.467428    1.167984   -0.459584
     27          1           0       -4.741897   -0.022697   -0.870367
     28          1           0       -2.082583    0.243184    2.060394
     29          1           0        0.720922    2.304216    1.947232
     30          1           0       -1.067671    2.464226    1.884894
     31          1           0        1.152399    0.396339   -0.698837
     32          1           0       -0.578848    0.244273   -1.198600
     33          1           0        0.421460   -1.420125    1.557756
     34          1           0        0.216756   -0.317194    2.905937
     35          1           0        2.508753   -0.611970    2.806448
     36          1           0        2.312651    0.952732    2.058343
     37          1           0        3.772808    1.321191    0.295654
     38          1           0        5.103798    0.532818   -1.637996
     39          1           0        4.981505   -1.848830   -2.343539
     40          1           0        3.522849   -3.426598   -1.094085
     41          1           0        2.199572   -2.631929    0.835338
 ---------------------------------------------------------------------

 SCF Done:  E(RB3LYP) =  -1714.06868045     A.U. after   11 cycles

 The electronic state is 1-A.
 Alpha  occ. eigenvalues --  -89.14031 -89.09501 -19.15801 -19.15664 -19.15112
 Alpha  occ. eigenvalues --  -19.15042 -14.38312 -14.38166 -10.27995 -10.23372
 Alpha  occ. eigenvalues --  -10.22478 -10.22414 -10.21981 -10.20209 -10.20113
 Alpha  occ. eigenvalues --  -10.20069 -10.19257 -10.19231 -10.19084 -10.19068
 Alpha  occ. eigenvalues --  -10.19047  -8.16275  -8.12559  -6.12764  -6.12699
 Alpha  occ. eigenvalues --   -6.12656  -6.08994  -6.08914  -6.08826  -1.13316
 Alpha  occ. eigenvalues --   -1.10389  -1.01538  -1.00118  -0.95700  -0.94254
 Alpha  occ. eigenvalues --   -0.86281  -0.85333  -0.79664  -0.74781  -0.74494
 Alpha  occ. eigenvalues --   -0.72959  -0.72680  -0.71375  -0.67586  -0.62991
 Alpha  occ. eigenvalues --   -0.60781  -0.60210  -0.58333  -0.57505  -0.54547
 Alpha  occ. eigenvalues --   -0.53393  -0.51670  -0.51601  -0.50290  -0.49213
 Alpha  occ. eigenvalues --   -0.48497  -0.46931  -0.46566  -0.46097  -0.45550
 Alpha  occ. eigenvalues --   -0.44977  -0.44614  -0.43850  -0.42612  -0.42417
 Alpha  occ. eigenvalues --   -0.42023  -0.41712  -0.41172  -0.40988  -0.39782
 Alpha  occ. eigenvalues --   -0.38956  -0.37372  -0.37147  -0.35733  -0.35363
 Alpha  occ. eigenvalues --   -0.34396  -0.33933  -0.33653  -0.33182  -0.32612
 Alpha  occ. eigenvalues --   -0.32151  -0.31556  -0.30551  -0.29292  -0.28555
 Alpha  occ. eigenvalues --   -0.26213  -0.25382  -0.24510
 Alpha virt. eigenvalues --   -0.00725  -0.00455   0.03397   0.04051   0.05030
 Alpha virt. eigenvalues --    0.05783   0.06296   0.06776   0.07528   0.08787
 Alpha virt. eigenvalues --    0.09023   0.09752   0.10314   0.11692   0.11975

 Mulliken charges:
               1
     1  C   -0.330832
     2  N   -0.528013
     3  C   -0.327295
     4  S    1.336442
     5  O   -0.545544
     6  O   -0.556998
     7  N   -0.734475
     8  C    0.166597
     9  C   -0.499243
    10  S    1.114955
    11  O   -0.540337
    12  O   -0.539731
    13  C   -0.514816
    14  C   -0.294735
    15  C   -0.371409
    16  C    0.146461
    17  C   -0.198990
    18  C   -0.132995
    19  C   -0.141128
    20  C   -0.136924
    21  C   -0.180271
    22  H    0.183388
    23  H    0.168047
    24  H    0.201330
    25  H    0.180095
    26  H    0.203105
    27  H    0.167193
    28  H    0.384817
    29  H    0.219351
    30  H    0.225019
    31  H    0.231024
    32  H    0.249762
    33  H    0.201709
    34  H    0.153855
    35  H    0.175056
    36  H    0.153366
    37  H    0.142831
    38  H    0.143077
    39  H    0.141361
    40  H    0.142461
    41  H    0.142438
 Sum of Mulliken charges =   0.00000

 Dipole moment (field-independent basis, Debye):
    X=              0.4018    Y=             -1.6126    Z=              1.8200  Tot=              2.4646
 Quadrupole moment (field-independent basis, Debye-Ang):
   XX=           -138.8462   YY=           -158.8196   ZZ=           -124.6023
   XY=             -6.9057   XZ=              6.6079   YZ=             17.7744

 Normal termination of Gaussian 09 at Fri Oct  2 06:24:29 2020.
