 Gaussian 09, Revision D.01,

 -----------------
 #p b3lyp/6-31G(d)
 -----------------

 ----------------
 SM40.n.2.pdb.xyz
 ----------------
 Symbolic Z-matrix:
 Charge =  0 Multiplicity = 1

 SCF Done:  E(RB3LYP) =  -1714.03862387     A.U. after   15 cycles
 Normal termination of Gaussian 09 at Fri Oct  2 01:35:10 2020.
 Gaussian 09:  AM64L-G09RevD.01 24-Apr-2013

 ----------------------------------------------------------------------
 #p b3lyp/6-31G(d) scrf=(iefpcm,read,solvent=Water) geom=allcheck guess
 =read
 ----------------------------------------------------------------------

 Structure from the checkpoint file:  "SM40.n.2.pdb.xyz.mst.n.w.chk"
 ----------------
 SM40.n.2.pdb.xyz
 ----------------
 Charge =  0 Multiplicity = 1

                         Standard orientation:
 ---------------------------------------------------------------------
 Center     Atomic      Atomic             Coordinates (Angstroms)
 Number     Number       Type             X           Y           Z
 ---------------------------------------------------------------------
      1          6           0        1.557845    3.463750    1.004062
      2          7           0        0.633682    2.333142    0.795694
      3          6           0       -0.660817    2.497739    1.478050
      4         16           0        0.511169    1.820983   -0.798975
      5          8           0       -0.537279    2.522317   -1.555085
      6          8           0        1.883101    1.840456   -1.327566
      7          7           0       -0.088950    0.274893   -0.592146
      8          6           0        0.729545   -0.906262   -0.284809
      9          6           0        1.565923   -0.750661    1.025556
     10         16           0        3.017787   -1.463839    0.186362
     11          8           0        4.216573   -0.602637    0.216122
     12          8           0        3.183133   -2.899564    0.499064
     13          6           0        1.933717   -1.201518   -1.257176
     14          6           0       -0.190717   -2.139597   -0.238498
     15          6           0       -1.324377   -2.132251    0.798256
     16          6           0       -2.590023   -1.391596    0.410048
     17          6           0       -3.201230   -1.594132   -0.835632
     18          6           0       -4.392273   -0.945839   -1.163088
     19          6           0       -4.999640   -0.083475   -0.247295
     20          6           0       -4.406718    0.120966    0.998550
     21          6           0       -3.213340   -0.529198    1.321529
     22          1           0        1.714887    3.551003    2.080247
     23          1           0        1.152330    4.410624    0.627194
     24          1           0        2.507760    3.249048    0.519828
     25          1           0       -0.457451    2.574026    2.547689
     26          1           0       -1.281053    1.621256    1.296328
     27          1           0       -1.189451    3.399043    1.146911
     28          1           0       -0.787584    0.104628   -1.316434
     29          1           0        1.228317   -1.323762    1.888514
     30          1           0        1.753253    0.287705    1.298006
     31          1           0        1.830490   -2.079171   -1.895078
     32          1           0        2.266326   -0.328366   -1.815493
     33          1           0        0.459707   -2.995548   -0.037446
     34          1           0       -0.599180   -2.302718   -1.240573
     35          1           0       -0.957730   -1.743808    1.753611
     36          1           0       -1.583926   -3.181720    0.984584
     37          1           0       -2.744249   -2.266414   -1.556175
     38          1           0       -4.847230   -1.115411   -2.134008
     39          1           0       -5.925633    0.420245   -0.503189
     40          1           0       -4.869482    0.786451    1.720257
     41          1           0       -2.758109   -0.369788    2.294604
 ---------------------------------------------------------------------

 SCF Done:  E(RB3LYP) =  -1714.06425376     A.U. after   11 cycles

 The electronic state is 1-A.
 Alpha  occ. eigenvalues --  -89.14407 -89.09775 -19.16140 -19.15944 -19.15524
 Alpha  occ. eigenvalues --  -19.15379 -14.38263 -14.38155 -10.27802 -10.22770
 Alpha  occ. eigenvalues --  -10.22465 -10.22102 -10.21996 -10.20411 -10.20009
 Alpha  occ. eigenvalues --  -10.19558 -10.19151 -10.19105 -10.18920 -10.18891
 Alpha  occ. eigenvalues --  -10.18872  -8.16625  -8.12851  -6.13111  -6.13057
 Alpha  occ. eigenvalues --   -6.13009  -6.09301  -6.09202  -6.09102  -1.13564
 Alpha  occ. eigenvalues --   -1.10610  -1.01735  -1.00338  -0.95613  -0.94165
 Alpha  occ. eigenvalues --   -0.86064  -0.85625  -0.79550  -0.74640  -0.74374
 Alpha  occ. eigenvalues --   -0.72703  -0.72373  -0.71454  -0.67487  -0.63099
 Alpha  occ. eigenvalues --   -0.60755  -0.60345  -0.58104  -0.57156  -0.54265
 Alpha  occ. eigenvalues --   -0.53089  -0.51902  -0.51444  -0.50477  -0.49137
 Alpha  occ. eigenvalues --   -0.48749  -0.46779  -0.46581  -0.45706  -0.45476
 Alpha  occ. eigenvalues --   -0.45129  -0.44709  -0.43717  -0.43674  -0.42321
 Alpha  occ. eigenvalues --   -0.41853  -0.41733  -0.40916  -0.40200  -0.38845
 Alpha  occ. eigenvalues --   -0.38489  -0.38187  -0.36472  -0.35890  -0.35391
 Alpha  occ. eigenvalues --   -0.34586  -0.33807  -0.33508  -0.33312  -0.33041
 Alpha  occ. eigenvalues --   -0.32542  -0.31877  -0.30905  -0.30283  -0.28036
 Alpha  occ. eigenvalues --   -0.26310  -0.25298  -0.24280
 Alpha virt. eigenvalues --   -0.00640  -0.00331   0.03382   0.04548   0.05255
 Alpha virt. eigenvalues --    0.05838   0.06210   0.07015   0.07530   0.08784
 Alpha virt. eigenvalues --    0.09484   0.10162   0.10601   0.11314   0.12772

 Mulliken charges:
               1
     1  C   -0.326087
     2  N   -0.530221
     3  C   -0.335955
     4  S    1.328603
     5  O   -0.565353
     6  O   -0.575338
     7  N   -0.732457
     8  C    0.190667
     9  C   -0.503731
    10  S    1.105529
    11  O   -0.558674
    12  O   -0.574856
    13  C   -0.494937
    14  C   -0.318987
    15  C   -0.350067
    16  C    0.175733
    17  C   -0.210203
    18  C   -0.146046
    19  C   -0.151914
    20  C   -0.144951
    21  C   -0.207262
    22  H    0.189693
    23  H    0.173575
    24  H    0.199354
    25  H    0.188474
    26  H    0.198117
    27  H    0.174642
    28  H    0.404465
    29  H    0.233865
    30  H    0.247672
    31  H    0.230576
    32  H    0.246013
    33  H    0.179934
    34  H    0.179877
    35  H    0.160334
    36  H    0.178124
    37  H    0.149130
    38  H    0.149859
    39  H    0.148416
    40  H    0.149487
    41  H    0.144895
 Sum of Mulliken charges =   0.00000

 Dipole moment (field-independent basis, Debye):
    X=             -7.5749    Y=              0.1628    Z=              2.6522  Tot=              8.0274
 Quadrupole moment (field-independent basis, Debye-Ang):
   XX=           -169.2901   YY=           -141.6715   ZZ=           -129.3520
   XY=             11.1378   XZ=             -0.3379   YZ=             20.5851

 Normal termination of Gaussian 09 at Fri Oct  2 01:40:38 2020.
