 Gaussian 09, Revision D.01,

 -----------------
 #p b3lyp/6-31G(d)
 -----------------

 -----------------
 SM40.n.14.pdb.xyz
 -----------------
 Symbolic Z-matrix:
 Charge =  0 Multiplicity = 1

 SCF Done:  E(RB3LYP) =  -1714.03472070     A.U. after   16 cycles
 Normal termination of Gaussian 09 at Thu Oct  1 21:46:08 2020.
 Gaussian 09:  AM64L-G09RevD.01 24-Apr-2013

 ----------------------------------------------------------------------
 #p b3lyp/6-31G(d) scrf=(iefpcm,read,solvent=Water) geom=allcheck guess
 =read
 ----------------------------------------------------------------------

 Structure from the checkpoint file:  "SM40.n.14.pdb.xyz.mst.n.w.chk"
 -----------------
 SM40.n.14.pdb.xyz
 -----------------
 Charge =  0 Multiplicity = 1

                         Standard orientation:
 ---------------------------------------------------------------------
 Center     Atomic      Atomic             Coordinates (Angstroms)
 Number     Number       Type             X           Y           Z
 ---------------------------------------------------------------------
      1          6           0        3.994154   -2.057261    0.935096
      2          7           0        3.160222   -1.773291   -0.241775
      3          6           0        2.363892   -2.905930   -0.733680
      4         16           0        2.477395   -0.273685   -0.372729
      5          8           0        3.464429    0.698393    0.120419
      6          8           0        1.969235   -0.114062   -1.739367
      7          7           0        1.118111   -0.358868    0.638076
      8          6           0        0.133960    0.737472    0.745101
      9          6           0       -0.609234    1.031919   -0.603020
     10         16           0       -0.358886    2.819888   -0.357945
     11          8           0        0.354943    3.492839   -1.460846
     12          8           0       -1.567326    3.473213    0.191968
     13          6           0        0.724525    2.183879    0.961944
     14          6           0       -0.819743    0.386101    1.906294
     15          6           0       -1.451055   -1.018747    1.899740
     16          6           0       -2.449768   -1.301752    0.797214
     17          6           0       -2.147932   -2.204646   -0.231091
     18          6           0       -3.066434   -2.469321   -1.248669
     19          6           0       -4.308625   -1.832748   -1.254848
     20          6           0       -4.625986   -0.934377   -0.231887
     21          6           0       -3.706352   -0.674940    0.785153
     22          1           0        4.695787   -2.845689    0.656694
     23          1           0        3.399414   -2.398362    1.790476
     24          1           0        4.553616   -1.163984    1.205349
     25          1           0        3.057268   -3.709978   -0.990779
     26          1           0        1.826186   -2.607303   -1.631301
     27          1           0        1.657157   -3.267019    0.021387
     28          1           0        1.447616   -0.630432    1.568588
     29          1           0       -1.656962    0.747905   -0.654770
     30          1           0       -0.055766    0.694607   -1.478079
     31          1           0        0.542134    2.639719    1.935507
     32          1           0        1.772294    2.277054    0.676709
     33          1           0       -1.602468    1.150375    1.931684
     34          1           0       -0.255988    0.496777    2.838828
     35          1           0       -1.948203   -1.136419    2.870689
     36          1           0       -0.657210   -1.769547    1.866946
     37          1           0       -1.182178   -2.703054   -0.231165
     38          1           0       -2.811595   -3.172143   -2.035586
     39          1           0       -5.024498   -2.035469   -2.044437
     40          1           0       -5.592533   -0.440268   -0.221377
     41          1           0       -3.967220    0.018142    1.579865
 ---------------------------------------------------------------------

 SCF Done:  E(RB3LYP) =  -1714.06346754     A.U. after   11 cycles

 The electronic state is 1-A.
 Alpha  occ. eigenvalues --  -89.14649 -89.09697 -19.16205 -19.16190 -19.15542
 Alpha  occ. eigenvalues --  -19.15315 -14.38712 -14.38124 -10.27810 -10.22670
 Alpha  occ. eigenvalues --  -10.22548 -10.22426 -10.22397 -10.20459 -10.19906
 Alpha  occ. eigenvalues --  -10.19368 -10.19185 -10.19113 -10.18998 -10.18980
 Alpha  occ. eigenvalues --  -10.18926  -8.16853  -8.12784  -6.13319  -6.13282
 Alpha  occ. eigenvalues --   -6.13271  -6.09236  -6.09134  -6.09032  -1.13843
 Alpha  occ. eigenvalues --   -1.10569  -1.01980  -1.00305  -0.95827  -0.94375
 Alpha  occ. eigenvalues --   -0.85995  -0.85396  -0.79455  -0.74555  -0.74461
 Alpha  occ. eigenvalues --   -0.73226  -0.72163  -0.71944  -0.67399  -0.62617
 Alpha  occ. eigenvalues --   -0.61168  -0.60457  -0.58084  -0.57092  -0.55222
 Alpha  occ. eigenvalues --   -0.52471  -0.51637  -0.51258  -0.50061  -0.49509
 Alpha  occ. eigenvalues --   -0.48987  -0.47471  -0.46603  -0.46105  -0.45784
 Alpha  occ. eigenvalues --   -0.45087  -0.44745  -0.43724  -0.42911  -0.42134
 Alpha  occ. eigenvalues --   -0.41961  -0.41727  -0.41175  -0.40596  -0.39437
 Alpha  occ. eigenvalues --   -0.38642  -0.37649  -0.36930  -0.36008  -0.35341
 Alpha  occ. eigenvalues --   -0.34908  -0.33710  -0.33564  -0.33292  -0.32919
 Alpha  occ. eigenvalues --   -0.32357  -0.32071  -0.30749  -0.29799  -0.27943
 Alpha  occ. eigenvalues --   -0.26829  -0.25346  -0.24466
 Alpha virt. eigenvalues --   -0.00744  -0.00324   0.02998   0.04751   0.05135
 Alpha virt. eigenvalues --    0.05573   0.06003   0.06284   0.07459   0.08857
 Alpha virt. eigenvalues --    0.09254   0.09743   0.10416   0.12000   0.12713

 Mulliken charges:
               1
     1  C   -0.329637
     2  N   -0.518464
     3  C   -0.326017
     4  S    1.313889
     5  O   -0.564064
     6  O   -0.574122
     7  N   -0.723412
     8  C    0.181298
     9  C   -0.499916
    10  S    1.100298
    11  O   -0.560052
    12  O   -0.574879
    13  C   -0.502680
    14  C   -0.314973
    15  C   -0.346037
    16  C    0.150133
    17  C   -0.198428
    18  C   -0.146634
    19  C   -0.151227
    20  C   -0.146023
    21  C   -0.198921
    22  H    0.194423
    23  H    0.176178
    24  H    0.203309
    25  H    0.191696
    26  H    0.199599
    27  H    0.178509
    28  H    0.397882
    29  H    0.234538
    30  H    0.249546
    31  H    0.233222
    32  H    0.240451
    33  H    0.177757
    34  H    0.176978
    35  H    0.169298
    36  H    0.163118
    37  H    0.146227
    38  H    0.149831
    39  H    0.149545
    40  H    0.150513
    41  H    0.147250
 Sum of Mulliken charges =   0.00000

 Dipole moment (field-independent basis, Debye):
    X=              0.6796    Y=            -10.4866    Z=              7.5700  Tot=             12.9513
 Quadrupole moment (field-independent basis, Debye-Ang):
   XX=           -137.6335   YY=           -153.8203   ZZ=           -133.4180
   XY=            -10.3563   XZ=             13.7400   YZ=             11.1093

 Normal termination of Gaussian 09 at Thu Oct  1 21:51:31 2020.
