 Gaussian 09, Revision D.01,

 -----------------
 #p b3lyp/6-31G(d)
 -----------------

 -----------------
 SM40.n.22.pdb.xyz
 -----------------
 Symbolic Z-matrix:
 Charge =  0 Multiplicity = 1

 SCF Done:  E(RB3LYP) =  -1714.04104738     A.U. after   16 cycles
 Normal termination of Gaussian 09 at Fri Oct  2 06:18:14 2020.
 Gaussian 09:  AM64L-G09RevD.01 24-Apr-2013

 ----------------------------------------------------------------------
 #p b3lyp/6-31G(d) scrf=(iefpcm,read,solvent=n-Octanol) geom=allcheck g
 uess=read
 ----------------------------------------------------------------------

 Structure from the checkpoint file:  "SM40.n.22.pdb.xyz.mst.n.o.chk"
 -----------------
 SM40.n.22.pdb.xyz
 -----------------
 Charge =  0 Multiplicity = 1

                         Standard orientation:
 ---------------------------------------------------------------------
 Center     Atomic      Atomic             Coordinates (Angstroms)
 Number     Number       Type             X           Y           Z
 ---------------------------------------------------------------------
      1          6           0        4.717248   -0.041648    1.026942
      2          7           0        3.580607    0.154299    0.110688
      3          6           0        3.928679    0.896628   -1.110061
      4         16           0        2.692025   -1.253548   -0.162657
      5          8           0        3.252280   -2.083198   -1.236636
      6          8           0        2.468219   -1.839426    1.162088
      7          7           0        1.293754   -0.599721   -0.823407
      8          6           0        0.137369   -0.179331    0.002475
      9          6           0       -0.739416    0.746521   -0.906630
     10         16           0       -0.112884    2.221789   -0.032807
     11          8           0        0.918971    2.936826   -0.803744
     12          8           0       -1.177049    2.992279    0.633855
     13          6           0        0.595891    0.912314    1.024112
     14          6           0       -0.593653   -1.390625    0.610262
     15          6           0       -1.875105   -1.126507    1.427858
     16          6           0       -3.132169   -0.867585    0.620303
     17          6           0       -3.578122   -1.804784   -0.322351
     18          6           0       -4.748159   -1.589249   -1.048218
     19          6           0       -5.495904   -0.428664   -0.843702
     20          6           0       -5.065032    0.511421    0.092228
     21          6           0       -3.892639    0.290661    0.817707
     22          1           0        5.074146    0.948857    1.314931
     23          1           0        5.541941   -0.593254    0.558855
     24          1           0        4.377997   -0.572401    1.914038
     25          1           0        4.336278    1.859211   -0.798015
     26          1           0        3.023848    1.073119   -1.689508
     27          1           0        4.672011    0.369732   -1.719226
     28          1           0        1.027221   -1.175825   -1.621510
     29          1           0       -1.809769    0.636687   -0.739789
     30          1           0       -0.496980    0.732700   -1.968506
     31          1           0        0.081395    0.874524    1.984596
     32          1           0        1.674449    1.002011    1.149521
     33          1           0        0.134494   -1.906826    1.240043
     34          1           0       -0.837902   -2.076688   -0.208419
     35          1           0       -1.723467   -0.303870    2.136463
     36          1           0       -2.035727   -2.018016    2.043991
     37          1           0       -3.003237   -2.711622   -0.485789
     38          1           0       -5.076314   -2.328015   -1.772559
     39          1           0       -6.406643   -0.259381   -1.408379
     40          1           0       -5.637682    1.417991    0.257378
     41          1           0       -3.556123    1.030414    1.538291
 ---------------------------------------------------------------------

 SCF Done:  E(RB3LYP) =  -1714.06876085     A.U. after   11 cycles

 The electronic state is 1-A.
 Alpha  occ. eigenvalues --  -89.14123 -89.09536 -19.15920 -19.15759 -19.15140
 Alpha  occ. eigenvalues --  -19.15080 -14.38367 -14.38234 -10.28065 -10.23001
 Alpha  occ. eigenvalues --  -10.22905 -10.22467 -10.22046 -10.20254 -10.20229
 Alpha  occ. eigenvalues --  -10.20147 -10.19427 -10.19366 -10.19262 -10.19212
 Alpha  occ. eigenvalues --  -10.19177  -8.16367  -8.12592  -6.12857  -6.12791
 Alpha  occ. eigenvalues --   -6.12748  -6.09028  -6.08946  -6.08862  -1.13436
 Alpha  occ. eigenvalues --   -1.10409  -1.01676  -1.00144  -0.95741  -0.94303
 Alpha  occ. eigenvalues --   -0.86385  -0.85373  -0.79734  -0.74869  -0.74532
 Alpha  occ. eigenvalues --   -0.73240  -0.72757  -0.71264  -0.67670  -0.63064
 Alpha  occ. eigenvalues --   -0.60961  -0.60207  -0.58437  -0.57588  -0.54621
 Alpha  occ. eigenvalues --   -0.53462  -0.51899  -0.51558  -0.50423  -0.49176
 Alpha  occ. eigenvalues --   -0.48570  -0.46934  -0.46675  -0.46126  -0.45639
 Alpha  occ. eigenvalues --   -0.45109  -0.44824  -0.43587  -0.42917  -0.42439
 Alpha  occ. eigenvalues --   -0.42106  -0.41919  -0.41141  -0.41054  -0.39924
 Alpha  occ. eigenvalues --   -0.39003  -0.37514  -0.36691  -0.36236  -0.35406
 Alpha  occ. eigenvalues --   -0.34703  -0.34055  -0.33823  -0.33019  -0.32758
 Alpha  occ. eigenvalues --   -0.32185  -0.31696  -0.30584  -0.29325  -0.28572
 Alpha  occ. eigenvalues --   -0.26259  -0.25538  -0.24675
 Alpha virt. eigenvalues --   -0.00917  -0.00597   0.03341   0.03991   0.04971
 Alpha virt. eigenvalues --    0.05730   0.06225   0.06767   0.07613   0.08635
 Alpha virt. eigenvalues --    0.09082   0.09728   0.09963   0.11661   0.12040

 Mulliken charges:
               1
     1  C   -0.331010
     2  N   -0.528312
     3  C   -0.326416
     4  S    1.338582
     5  O   -0.544121
     6  O   -0.559692
     7  N   -0.735760
     8  C    0.167224
     9  C   -0.506177
    10  S    1.115273
    11  O   -0.539539
    12  O   -0.540506
    13  C   -0.511000
    14  C   -0.291883
    15  C   -0.371708
    16  C    0.145135
    17  C   -0.186729
    18  C   -0.136377
    19  C   -0.140508
    20  C   -0.132463
    21  C   -0.199571
    22  H    0.183842
    23  H    0.168498
    24  H    0.200549
    25  H    0.180897
    26  H    0.201799
    27  H    0.167545
    28  H    0.385680
    29  H    0.234064
    30  H    0.222498
    31  H    0.216503
    32  H    0.253056
    33  H    0.194037
    34  H    0.156647
    35  H    0.156865
    36  H    0.176534
    37  H    0.140439
    38  H    0.143213
    39  H    0.142495
    40  H    0.144455
    41  H    0.145942
 Sum of Mulliken charges =   0.00000

 Dipole moment (field-independent basis, Debye):
    X=             -0.7818    Y=             -2.3558    Z=             -0.3287  Tot=              2.5038
 Quadrupole moment (field-independent basis, Debye-Ang):
   XX=           -125.5680   YY=           -162.9802   ZZ=           -134.0429
   XY=             14.9993   XZ=              8.6830   YZ=              3.2189

 Normal termination of Gaussian 09 at Fri Oct  2 06:23:07 2020.
