 Gaussian 09, Revision D.01,

 -----------------
 #p b3lyp/6-31G(d)
 -----------------

 -----------------
 SM40.n.12.pdb.xyz
 -----------------
 Symbolic Z-matrix:
 Charge =  0 Multiplicity = 1

 SCF Done:  E(RB3LYP) =  -1714.03318322     A.U. after   15 cycles
 Normal termination of Gaussian 09 at Fri Oct  2 02:38:20 2020.
 Gaussian 09:  AM64L-G09RevD.01 24-Apr-2013

 ----------------------------------------------------------------------
 #p b3lyp/6-31G(d) scrf=(iefpcm,read,solvent=Water) geom=allcheck guess
 =read
 ----------------------------------------------------------------------

 Structure from the checkpoint file:  "SM40.n.12.pdb.xyz.mst.n.w.chk"
 -----------------
 SM40.n.12.pdb.xyz
 -----------------
 Charge =  0 Multiplicity = 1

                         Standard orientation:
 ---------------------------------------------------------------------
 Center     Atomic      Atomic             Coordinates (Angstroms)
 Number     Number       Type             X           Y           Z
 ---------------------------------------------------------------------
      1          6           0        2.512367   -2.250703    1.575791
      2          7           0        2.762311   -0.856204    1.178584
      3          6           0        3.799349   -0.192006    1.990341
      4         16           0        2.938222   -0.641313   -0.489853
      5          8           0        3.363872    0.749492   -0.672329
      6          8           0        3.729585   -1.723437   -1.090287
      7          7           0        1.421887   -0.820708   -1.139719
      8          6           0        0.240238    0.041601   -0.928998
      9          6           0        0.517283    1.524748   -1.348302
     10         16           0        0.024629    2.111594    0.306283
     11          8           0        1.137376    2.707794    1.074953
     12          8           0       -1.268600    2.828158    0.293465
     13          6           0       -0.148995    0.314098    0.570754
     14          6           0       -0.865447   -0.618055   -1.783415
     15          6           0       -2.265076    0.034470   -1.770678
     16          6           0       -3.198999   -0.407225   -0.656491
     17          6           0       -3.896125    0.539189    0.104663
     18          6           0       -4.797754    0.144132    1.095691
     19          6           0       -5.019791   -1.211620    1.339764
     20          6           0       -4.333437   -2.167183    0.585264
     21          6           0       -3.434213   -1.767336   -0.403071
     22          1           0        2.227230   -2.240947    2.629060
     23          1           0        3.393774   -2.887348    1.443942
     24          1           0        1.680379   -2.660702    1.000658
     25          1           0        3.476254   -0.257666    3.030252
     26          1           0        3.866423    0.854277    1.701687
     27          1           0        4.780843   -0.669232    1.893756
     28          1           0        1.207962   -1.806345   -1.281640
     29          1           0       -0.131055    1.915381   -2.132118
     30          1           0        1.564457    1.742024   -1.550120
     31          1           0       -1.160431    0.029706    0.859274
     32          1           0        0.593049   -0.039862    1.286167
     33          1           0       -0.961148   -1.663982   -1.474186
     34          1           0       -0.489532   -0.629281   -2.808679
     35          1           0       -2.731344   -0.223005   -2.729253
     36          1           0       -2.187951    1.126443   -1.764106
     37          1           0       -3.720726    1.594372   -0.076346
     38          1           0       -5.324384    0.896522    1.674867
     39          1           0       -5.719226   -1.523269    2.109106
     40          1           0       -4.501115   -3.223671    0.764352
     41          1           0       -2.912724   -2.520258   -0.985892
 ---------------------------------------------------------------------

 SCF Done:  E(RB3LYP) =  -1714.05937636     A.U. after   11 cycles

 The electronic state is 1-A.
 Alpha  occ. eigenvalues --  -89.14490 -89.09606 -19.16127 -19.16015 -19.15400
 Alpha  occ. eigenvalues --  -19.15305 -14.38287 -14.38083 -10.28049 -10.22552
 Alpha  occ. eigenvalues --  -10.22386 -10.22343 -10.21959 -10.20629 -10.20024
 Alpha  occ. eigenvalues --  -10.19799 -10.19159 -10.19093 -10.19009 -10.18980
 Alpha  occ. eigenvalues --  -10.18818  -8.16675  -8.12694  -6.13154  -6.13100
 Alpha  occ. eigenvalues --   -6.13087  -6.09145  -6.09043  -6.08942  -1.13694
 Alpha  occ. eigenvalues --   -1.10455  -1.01954  -1.00172  -0.95497  -0.94067
 Alpha  occ. eigenvalues --   -0.86167  -0.85347  -0.79498  -0.74896  -0.74451
 Alpha  occ. eigenvalues --   -0.72720  -0.72117  -0.71356  -0.67722  -0.62772
 Alpha  occ. eigenvalues --   -0.60911  -0.60439  -0.57965  -0.57109  -0.55075
 Alpha  occ. eigenvalues --   -0.53166  -0.51738  -0.51481  -0.49944  -0.49810
 Alpha  occ. eigenvalues --   -0.48676  -0.47343  -0.46335  -0.46237  -0.45395
 Alpha  occ. eigenvalues --   -0.45039  -0.44670  -0.43646  -0.43019  -0.42300
 Alpha  occ. eigenvalues --   -0.41829  -0.41212  -0.40982  -0.40497  -0.39822
 Alpha  occ. eigenvalues --   -0.38882  -0.36992  -0.36464  -0.36078  -0.35533
 Alpha  occ. eigenvalues --   -0.33836  -0.33634  -0.33606  -0.33419  -0.32718
 Alpha  occ. eigenvalues --   -0.32376  -0.32043  -0.30694  -0.30567  -0.28338
 Alpha  occ. eigenvalues --   -0.26067  -0.25326  -0.24529
 Alpha virt. eigenvalues --   -0.00684  -0.00374   0.03198   0.03958   0.04902
 Alpha virt. eigenvalues --    0.05723   0.05882   0.06014   0.07570   0.08908
 Alpha virt. eigenvalues --    0.09672   0.10238   0.11057   0.11734   0.12564

 Mulliken charges:
               1
     1  C   -0.328253
     2  N   -0.534946
     3  C   -0.322384
     4  S    1.319936
     5  O   -0.578412
     6  O   -0.560516
     7  N   -0.737106
     8  C    0.207929
     9  C   -0.503273
    10  S    1.117658
    11  O   -0.564233
    12  O   -0.571128
    13  C   -0.513208
    14  C   -0.316242
    15  C   -0.370417
    16  C    0.145781
    17  C   -0.202368
    18  C   -0.146696
    19  C   -0.151302
    20  C   -0.148248
    21  C   -0.197124
    22  H    0.192904
    23  H    0.180306
    24  H    0.180369
    25  H    0.186393
    26  H    0.200237
    27  H    0.171170
    28  H    0.413188
    29  H    0.232963
    30  H    0.252778
    31  H    0.232000
    32  H    0.252760
    33  H    0.174398
    34  H    0.183010
    35  H    0.182745
    36  H    0.168388
    37  H    0.152206
    38  H    0.149925
    39  H    0.149089
    40  H    0.150117
    41  H    0.149607
 Sum of Mulliken charges =   0.00000

 Dipole moment (field-independent basis, Debye):
    X=             -3.4906    Y=             -7.9678    Z=              0.3154  Tot=              8.7046
 Quadrupole moment (field-independent basis, Debye-Ang):
   XX=           -154.7778   YY=           -148.0212   ZZ=           -128.1224
   XY=              1.1065   XZ=             13.2940   YZ=            -12.2592

 Normal termination of Gaussian 09 at Fri Oct  2 02:43:25 2020.
