 Gaussian 09, Revision D.01,

 -----------------
 #p b3lyp/6-31G(d)
 -----------------

 ----------------
 SM40.n.7.pdb.xyz
 ----------------
 Symbolic Z-matrix:
 Charge =  0 Multiplicity = 1

 SCF Done:  E(RB3LYP) =  -1714.03550534     A.U. after   15 cycles
 Normal termination of Gaussian 09 at Fri Oct  2 06:17:19 2020.
 Gaussian 09:  AM64L-G09RevD.01 24-Apr-2013

 ----------------------------------------------------------------------
 #p b3lyp/6-31G(d) scrf=(iefpcm,read,solvent=n-Octanol) geom=allcheck g
 uess=read
 ----------------------------------------------------------------------

 Structure from the checkpoint file:  "SM40.n.7.pdb.xyz.mst.n.o.chk"
 ----------------
 SM40.n.7.pdb.xyz
 ----------------
 Charge =  0 Multiplicity = 1

                         Standard orientation:
 ---------------------------------------------------------------------
 Center     Atomic      Atomic             Coordinates (Angstroms)
 Number     Number       Type             X           Y           Z
 ---------------------------------------------------------------------
      1          6           0        0.445606   -3.314176   -0.801576
      2          7           0        1.082684   -2.561190    0.287755
      3          6           0        1.320020   -3.371134    1.494729
      4         16           0        2.406752   -1.630079   -0.207680
      5          8           0        3.056392   -1.186094    1.025085
      6          8           0        3.179321   -2.310390   -1.250917
      7          7           0        1.778861   -0.292179   -0.983688
      8          6           0        0.823703    0.683212   -0.417604
      9          6           0        0.969725    1.999747   -1.255997
     10         16           0        1.467258    2.926623    0.237744
     11          8           0        2.850503    3.423256    0.171839
     12          8           0        0.397800    3.822556    0.709461
     13          6           0        1.335173    1.250645    0.953174
     14          6           0       -0.615038    0.135377   -0.390733
     15          6           0       -1.701506    1.080719    0.149879
     16          6           0       -3.069874    0.438582    0.101379
     17          6           0       -3.520201   -0.370321    1.152829
     18          6           0       -4.768660   -0.989681    1.097396
     19          6           0       -5.590220   -0.808475   -0.016100
     20          6           0       -5.155104   -0.002482   -1.070032
     21          6           0       -3.905906    0.614593   -1.009192
     22          1           0       -0.503952   -3.698420   -0.425746
     23          1           0        1.063932   -4.149372   -1.149012
     24          1           0        0.235554   -2.653132   -1.642599
     25          1           0        0.347086   -3.726028    1.841213
     26          1           0        1.770410   -2.746641    2.263556
     27          1           0        1.964633   -4.237116    1.300296
     28          1           0        1.653002   -0.480122   -1.975187
     29          1           0        0.050958    2.381137   -1.701361
     30          1           0        1.778077    1.968253   -1.986194
     31          1           0        0.622931    1.205577    1.776784
     32          1           0        2.306691    0.861555    1.252688
     33          1           0       -0.603983   -0.784573    0.198967
     34          1           0       -0.875559   -0.149893   -1.416266
     35          1           0       -1.715444    2.012227   -0.426033
     36          1           0       -1.468832    1.359906    1.182377
     37          1           0       -2.888316   -0.509264    2.025443
     38          1           0       -5.100187   -1.608486    1.925555
     39          1           0       -6.564325   -1.286453   -0.060888
     40          1           0       -5.790209    0.150073   -1.936451
     41          1           0       -3.575884    1.245394   -1.829299
 ---------------------------------------------------------------------

 SCF Done:  E(RB3LYP) =  -1714.06649299     A.U. after   11 cycles

 The electronic state is 1-A.
 Alpha  occ. eigenvalues --  -89.14443 -89.09847 -19.16083 -19.15865 -19.15410
 Alpha  occ. eigenvalues --  -19.15324 -14.38696 -14.38342 -10.28446 -10.23599
 Alpha  occ. eigenvalues --  -10.23110 -10.23031 -10.22585 -10.20480 -10.20106
 Alpha  occ. eigenvalues --  -10.20049 -10.19240 -10.19227 -10.19119 -10.19116
 Alpha  occ. eigenvalues --  -10.19087  -8.16633  -8.12899  -6.13112  -6.13058
 Alpha  occ. eigenvalues --   -6.13042  -6.09332  -6.09254  -6.09171  -1.13721
 Alpha  occ. eigenvalues --   -1.10733  -1.02037  -1.00473  -0.95747  -0.94480
 Alpha  occ. eigenvalues --   -0.86338  -0.85618  -0.79817  -0.74626  -0.74427
 Alpha  occ. eigenvalues --   -0.73400  -0.73140  -0.71664  -0.67998  -0.63170
 Alpha  occ. eigenvalues --   -0.60781  -0.60759  -0.58678  -0.57559  -0.55647
 Alpha  occ. eigenvalues --   -0.53725  -0.51995  -0.51167  -0.50549  -0.49728
 Alpha  occ. eigenvalues --   -0.48892  -0.47952  -0.47002  -0.46460  -0.45823
 Alpha  occ. eigenvalues --   -0.45138  -0.44824  -0.44521  -0.42962  -0.42651
 Alpha  occ. eigenvalues --   -0.42125  -0.41663  -0.41532  -0.40963  -0.39438
 Alpha  occ. eigenvalues --   -0.39301  -0.37942  -0.36080  -0.35788  -0.35747
 Alpha  occ. eigenvalues --   -0.34505  -0.34351  -0.33826  -0.33309  -0.32906
 Alpha  occ. eigenvalues --   -0.32405  -0.31998  -0.30807  -0.29658  -0.29483
 Alpha  occ. eigenvalues --   -0.26183  -0.25317  -0.24562
 Alpha virt. eigenvalues --   -0.00481  -0.00405   0.02194   0.03334   0.04403
 Alpha virt. eigenvalues --    0.05407   0.05852   0.06360   0.07671   0.08218
 Alpha virt. eigenvalues --    0.09216   0.09466   0.10311   0.10570   0.11531

 Mulliken charges:
               1
     1  C   -0.323730
     2  N   -0.524684
     3  C   -0.323547
     4  S    1.318009
     5  O   -0.560064
     6  O   -0.540848
     7  N   -0.723784
     8  C    0.186969
     9  C   -0.505740
    10  S    1.115546
    11  O   -0.529561
    12  O   -0.546338
    13  C   -0.517023
    14  C   -0.282744
    15  C   -0.382409
    16  C    0.168785
    17  C   -0.185672
    18  C   -0.137353
    19  C   -0.140543
    20  C   -0.138245
    21  C   -0.186963
    22  H    0.183677
    23  H    0.179989
    24  H    0.174004
    25  H    0.178329
    26  H    0.202096
    27  H    0.167821
    28  H    0.387199
    29  H    0.222476
    30  H    0.229735
    31  H    0.219837
    32  H    0.259303
    33  H    0.187683
    34  H    0.153725
    35  H    0.162151
    36  H    0.163372
    37  H    0.133225
    38  H    0.140970
    39  H    0.140221
    40  H    0.141064
    41  H    0.133063
 Sum of Mulliken charges =   0.00000

 Dipole moment (field-independent basis, Debye):
    X=             -6.7539    Y=             -6.2367    Z=             -2.3839  Tot=              9.4971
 Quadrupole moment (field-independent basis, Debye-Ang):
   XX=           -162.7073   YY=           -155.3175   ZZ=           -127.2250
   XY=              0.1640   XZ=              1.4201   YZ=            -12.7388

 Normal termination of Gaussian 09 at Fri Oct  2 06:22:08 2020.
