 Gaussian 09, Revision D.01,

 -----------------
 #p b3lyp/6-31G(d)
 -----------------

 -----------------
 SM40.n.11.pdb.xyz
 -----------------
 Symbolic Z-matrix:
 Charge =  0 Multiplicity = 1

 SCF Done:  E(RB3LYP) =  -1714.03630882     A.U. after   16 cycles
 Normal termination of Gaussian 09 at Thu Oct  1 22:09:13 2020.
 Gaussian 09:  AM64L-G09RevD.01 24-Apr-2013

 ----------------------------------------------------------------------
 #p b3lyp/6-31G(d) scrf=(iefpcm,read,solvent=Water) geom=allcheck guess
 =read
 ----------------------------------------------------------------------

 Structure from the checkpoint file:  "SM40.n.11.pdb.xyz.mst.n.w.chk"
 -----------------
 SM40.n.11.pdb.xyz
 -----------------
 Charge =  0 Multiplicity = 1

                         Standard orientation:
 ---------------------------------------------------------------------
 Center     Atomic      Atomic             Coordinates (Angstroms)
 Number     Number       Type             X           Y           Z
 ---------------------------------------------------------------------
      1          6           0        3.788458   -2.611637   -1.151058
      2          7           0        3.370933   -2.054195    0.144949
      3          6           0        4.285133   -1.042478    0.695271
      4         16           0        1.751301   -1.713752    0.314618
      5          8           0        1.018189   -2.856428   -0.245346
      6          8           0        1.520618   -1.324875    1.708935
      7          7           0        1.504113   -0.321839   -0.619010
      8          6           0        0.406234    0.621554   -0.289396
      9          6           0        0.545987    1.794451   -1.313618
     10         16           0        1.430388    2.786244   -0.061437
     11          8           0        2.896443    2.724513   -0.231995
     12          8           0        0.817765    4.102871    0.204277
     13          6           0        0.794138    1.437902    0.984601
     14          6           0       -0.966778   -0.071188   -0.262644
     15          6           0       -2.179297    0.815609    0.027734
     16          6           0       -3.508339    0.080050    0.010075
     17          6           0       -3.607286   -1.299538   -0.194623
     18          6           0       -4.850765   -1.937030   -0.202142
     19          6           0       -6.019711   -1.203128   -0.003310
     20          6           0       -5.934008    0.177860    0.202666
     21          6           0       -4.691121    0.807940    0.208255
     22          1           0        4.758378   -3.091039   -1.003894
     23          1           0        3.890111   -1.837330   -1.922068
     24          1           0        3.067725   -3.361428   -1.470604
     25          1           0        5.272856   -1.500910    0.765244
     26          1           0        3.953915   -0.763477    1.693556
     27          1           0        4.343239   -0.150610    0.061855
     28          1           0        1.465887   -0.603489   -1.602639
     29          1           0       -0.400167    2.274828   -1.559919
     30          1           0        1.122551    1.592317   -2.214925
     31          1           0       -0.063538    1.795589    1.555533
     32          1           0        1.529612    0.977733    1.637676
     33          1           0       -0.914182   -0.864396    0.489086
     34          1           0       -1.096950   -0.565521   -1.229868
     35          1           0       -2.231895    1.636056   -0.699056
     36          1           0       -2.064209    1.293073    1.007366
     37          1           0       -2.710075   -1.886667   -0.351454
     38          1           0       -4.901306   -3.009539   -0.363557
     39          1           0       -6.985297   -1.697199   -0.009471
     40          1           0       -6.835216    0.762310    0.358573
     41          1           0       -4.633763    1.881213    0.368276
 ---------------------------------------------------------------------

 SCF Done:  E(RB3LYP) =  -1714.06370394     A.U. after   11 cycles

 The electronic state is 1-A.
 Alpha  occ. eigenvalues --  -89.14228 -89.09853 -19.16142 -19.15936 -19.15620
 Alpha  occ. eigenvalues --  -19.15388 -14.38229 -14.37756 -10.27935 -10.23358
 Alpha  occ. eigenvalues --  -10.22823 -10.22244 -10.21945 -10.20137 -10.20131
 Alpha  occ. eigenvalues --  -10.19868 -10.19065 -10.19033 -10.18873 -10.18835
 Alpha  occ. eigenvalues --  -10.18824  -8.16465  -8.12919  -6.12922  -6.12900
 Alpha  occ. eigenvalues --   -6.12874  -6.09367  -6.09270  -6.09174  -1.13634
 Alpha  occ. eigenvalues --   -1.10686  -1.01939  -1.00378  -0.95442  -0.94315
 Alpha  occ. eigenvalues --   -0.86013  -0.85365  -0.79733  -0.74615  -0.74137
 Alpha  occ. eigenvalues --   -0.72829  -0.72641  -0.71586  -0.67324  -0.63310
 Alpha  occ. eigenvalues --   -0.60714  -0.59946  -0.58473  -0.56990  -0.54956
 Alpha  occ. eigenvalues --   -0.52764  -0.51939  -0.51239  -0.50049  -0.49758
 Alpha  occ. eigenvalues --   -0.48900  -0.47224  -0.46437  -0.46219  -0.45578
 Alpha  occ. eigenvalues --   -0.45328  -0.44861  -0.43754  -0.42877  -0.42026
 Alpha  occ. eigenvalues --   -0.41709  -0.41342  -0.40869  -0.40609  -0.39647
 Alpha  occ. eigenvalues --   -0.38996  -0.37473  -0.36631  -0.35975  -0.35124
 Alpha  occ. eigenvalues --   -0.34812  -0.34011  -0.33569  -0.33480  -0.32959
 Alpha  occ. eigenvalues --   -0.32600  -0.31751  -0.30924  -0.29666  -0.28481
 Alpha  occ. eigenvalues --   -0.26324  -0.25271  -0.24456
 Alpha virt. eigenvalues --   -0.00531  -0.00027   0.03186   0.03615   0.05022
 Alpha virt. eigenvalues --    0.05919   0.06091   0.07301   0.08248   0.09433
 Alpha virt. eigenvalues --    0.09662   0.10046   0.10154   0.11158   0.11712

 Mulliken charges:
               1
     1  C   -0.334686
     2  N   -0.514350
     3  C   -0.333024
     4  S    1.356706
     5  O   -0.572210
     6  O   -0.596876
     7  N   -0.731374
     8  C    0.146770
     9  C   -0.494588
    10  S    1.110709
    11  O   -0.561068
    12  O   -0.559645
    13  C   -0.481423
    14  C   -0.297950
    15  C   -0.362826
    16  C    0.152032
    17  C   -0.195926
    18  C   -0.158498
    19  C   -0.149918
    20  C   -0.151800
    21  C   -0.192957
    22  H    0.192552
    23  H    0.172878
    24  H    0.199445
    25  H    0.189128
    26  H    0.194376
    27  H    0.178636
    28  H    0.404884
    29  H    0.232029
    30  H    0.238407
    31  H    0.225701
    32  H    0.247672
    33  H    0.188679
    34  H    0.176293
    35  H    0.171300
    36  H    0.174687
    37  H    0.146579
    38  H    0.149101
    39  H    0.147934
    40  H    0.149280
    41  H    0.143341
 Sum of Mulliken charges =   0.00000

 Dipole moment (field-independent basis, Debye):
    X=             -0.4492    Y=             -2.4666    Z=             -4.7307  Tot=              5.3540
 Quadrupole moment (field-independent basis, Debye-Ang):
   XX=           -123.6740   YY=           -169.2428   ZZ=           -133.4772
   XY=            -19.2914   XZ=             -6.7200   YZ=              5.3560

 Normal termination of Gaussian 09 at Thu Oct  1 22:14:03 2020.
