 Gaussian 09, Revision D.01,

 -----------------
 #p b3lyp/6-31G(d)
 -----------------

 ----------------
 SM40.n.6.pdb.xyz
 ----------------
 Symbolic Z-matrix:
 Charge =  0 Multiplicity = 1

 SCF Done:  E(RB3LYP) =  -1714.02985186     A.U. after   15 cycles
 Normal termination of Gaussian 09 at Thu Oct  1 21:39:09 2020.
 Gaussian 09:  AM64L-G09RevD.01 24-Apr-2013

 ----------------------------------------------------------------------
 #p b3lyp/6-31G(d) scrf=(iefpcm,read,solvent=Water) geom=allcheck guess
 =read
 ----------------------------------------------------------------------

 Structure from the checkpoint file:  "SM40.n.6.pdb.xyz.mst.n.w.chk"
 ----------------
 SM40.n.6.pdb.xyz
 ----------------
 Charge =  0 Multiplicity = 1

                         Standard orientation:
 ---------------------------------------------------------------------
 Center     Atomic      Atomic             Coordinates (Angstroms)
 Number     Number       Type             X           Y           Z
 ---------------------------------------------------------------------
      1          6           0       -2.825695   -2.354332    1.331451
      2          7           0       -2.198734   -1.952354    0.062529
      3          6           0       -2.300287   -2.984047   -0.987448
      4         16           0       -2.619151   -0.397705   -0.445423
      5          8           0       -2.081431   -0.263149   -1.802884
      6          8           0       -4.043130   -0.120012   -0.209497
      7          7           0       -1.827254    0.675274    0.550569
      8          6           0       -0.360671    0.796074    0.740139
      9          6           0       -0.142983    2.220009    1.349198
     10         16           0        0.278530    2.867388   -0.303884
     11          8           0       -0.868197    3.529180   -0.957549
     12          8           0        1.593625    3.535778   -0.368034
     13          6           0        0.338526    1.073419   -0.633638
     14          6           0        0.205232   -0.347697    1.603396
     15          6           0        1.719674   -0.352281    1.887536
     16          6           0        2.600442   -0.917346    0.790993
     17          6           0        3.699019   -0.191208    0.310667
     18          6           0        4.535363   -0.717157   -0.676288
     19          6           0        4.285476   -1.986870   -1.199973
     20          6           0        3.194911   -2.723081   -0.729411
     21          6           0        2.362721   -2.192722    0.256403
     22          1           0       -2.323285   -3.261606    1.670564
     23          1           0       -3.897294   -2.553269    1.221664
     24          1           0       -2.678225   -1.580940    2.085614
     25          1           0       -1.817328   -3.882220   -0.597179
     26          1           0       -1.771510   -2.649060   -1.876921
     27          1           0       -3.340211   -3.222827   -1.242034
     28          1           0       -2.363470    0.822098    1.406596
     29          1           0        0.731602    2.283157    1.996358
     30          1           0       -1.006551    2.690559    1.815871
     31          1           0        1.379464    0.750289   -0.658554
     32          1           0       -0.204127    0.754938   -1.519570
     33          1           0       -0.081683   -1.292736    1.137582
     34          1           0       -0.324129   -0.298624    2.561481
     35          1           0        1.863904   -0.955753    2.793096
     36          1           0        2.070509    0.651653    2.147494
     37          1           0        3.893978    0.797945    0.715629
     38          1           0        5.378476   -0.135182   -1.033713
     39          1           0        4.932188   -2.399720   -1.967626
     40          1           0        2.993193   -3.710884   -1.129227
     41          1           0        1.519047   -2.774145    0.615667
 ---------------------------------------------------------------------

 SCF Done:  E(RB3LYP) =  -1714.06101878     A.U. after   11 cycles

 The electronic state is 1-A.
 Alpha  occ. eigenvalues --  -89.14412 -89.09798 -19.16062 -19.15849 -19.15541
 Alpha  occ. eigenvalues --  -19.15353 -14.38257 -14.38023 -10.28010 -10.23267
 Alpha  occ. eigenvalues --  -10.22582 -10.22325 -10.22039 -10.20131 -10.19971
 Alpha  occ. eigenvalues --  -10.19776 -10.19270 -10.19255 -10.19098 -10.19092
 Alpha  occ. eigenvalues --  -10.19078  -8.16593  -8.12859  -6.13069  -6.13018
 Alpha  occ. eigenvalues --   -6.13007  -6.09308  -6.09209  -6.09114  -1.13566
 Alpha  occ. eigenvalues --   -1.10635  -1.01820  -1.00336  -0.95464  -0.94101
 Alpha  occ. eigenvalues --   -0.86243  -0.85442  -0.79535  -0.74714  -0.74351
 Alpha  occ. eigenvalues --   -0.72770  -0.72466  -0.71361  -0.67768  -0.62930
 Alpha  occ. eigenvalues --   -0.60875  -0.60399  -0.58366  -0.57398  -0.55225
 Alpha  occ. eigenvalues --   -0.53036  -0.51712  -0.51354  -0.50404  -0.49161
 Alpha  occ. eigenvalues --   -0.48747  -0.47020  -0.46661  -0.46356  -0.45535
 Alpha  occ. eigenvalues --   -0.45121  -0.44233  -0.43897  -0.42838  -0.42267
 Alpha  occ. eigenvalues --   -0.42056  -0.41449  -0.41048  -0.40784  -0.39831
 Alpha  occ. eigenvalues --   -0.38889  -0.37087  -0.36516  -0.35843  -0.35661
 Alpha  occ. eigenvalues --   -0.34494  -0.33961  -0.33450  -0.33132  -0.32827
 Alpha  occ. eigenvalues --   -0.32588  -0.31907  -0.30906  -0.29568  -0.29241
 Alpha  occ. eigenvalues --   -0.25908  -0.25481  -0.24550
 Alpha virt. eigenvalues --   -0.00823  -0.00564   0.03527   0.03717   0.04973
 Alpha virt. eigenvalues --    0.05758   0.06119   0.06864   0.08041   0.08842
 Alpha virt. eigenvalues --    0.09124   0.09666   0.10457   0.11631   0.12297

 Mulliken charges:
               1
     1  C   -0.329129
     2  N   -0.522058
     3  C   -0.322540
     4  S    1.308140
     5  O   -0.576260
     6  O   -0.564318
     7  N   -0.716888
     8  C    0.155289
     9  C   -0.490205
    10  S    1.107367
    11  O   -0.561909
    12  O   -0.560975
    13  C   -0.507929
    14  C   -0.290180
    15  C   -0.371500
    16  C    0.153142
    17  C   -0.210012
    18  C   -0.142296
    19  C   -0.151318
    20  C   -0.146615
    21  C   -0.193810
    22  H    0.191496
    23  H    0.178713
    24  H    0.182741
    25  H    0.186083
    26  H    0.198067
    27  H    0.170892
    28  H    0.416299
    29  H    0.230947
    30  H    0.238650
    31  H    0.226730
    32  H    0.259573
    33  H    0.195062
    34  H    0.167219
    35  H    0.181147
    36  H    0.160322
    37  H    0.147873
    38  H    0.151947
    39  H    0.150439
    40  H    0.151377
    41  H    0.148429
 Sum of Mulliken charges =   0.00000

 Dipole moment (field-independent basis, Debye):
    X=              1.8761    Y=             -9.0896    Z=              8.3869  Tot=             12.5092
 Quadrupole moment (field-independent basis, Debye-Ang):
   XX=           -152.1654   YY=           -148.8135   ZZ=           -130.4609
   XY=              6.5643   XZ=            -14.9715   YZ=             14.2232

 Normal termination of Gaussian 09 at Thu Oct  1 21:44:21 2020.
