 Gaussian 09, Revision D.01,

 -----------------
 #p b3lyp/6-31G(d)
 -----------------

 -----------------
 SM40.n.26.pdb.xyz
 -----------------
 Symbolic Z-matrix:
 Charge =  0 Multiplicity = 1

 SCF Done:  E(RB3LYP) =  -1714.03483432     A.U. after   15 cycles
 Normal termination of Gaussian 09 at Fri Oct  2 06:19:14 2020.
 Gaussian 09:  AM64L-G09RevD.01 24-Apr-2013

 ----------------------------------------------------------------------
 #p b3lyp/6-31G(d) scrf=(iefpcm,read,solvent=n-Octanol) geom=allcheck g
 uess=read
 ----------------------------------------------------------------------

 Structure from the checkpoint file:  "SM40.n.26.pdb.xyz.mst.n.o.chk"
 -----------------
 SM40.n.26.pdb.xyz
 -----------------
 Charge =  0 Multiplicity = 1

                         Standard orientation:
 ---------------------------------------------------------------------
 Center     Atomic      Atomic             Coordinates (Angstroms)
 Number     Number       Type             X           Y           Z
 ---------------------------------------------------------------------
      1          6           0        4.184856   -0.642246    1.456863
      2          7           0        3.587952   -0.028009    0.263271
      3          6           0        4.540838    0.767471   -0.529559
      4         16           0        2.638129   -1.096461   -0.650060
      5          8           0        2.331356   -0.384361   -1.891242
      6          8           0        3.230005   -2.435502   -0.684261
      7          7           0        1.236345   -1.287589    0.216841
      8          6           0        0.205189   -0.282471    0.533298
      9          6           0       -0.364828    0.411345   -0.750595
     10         16           0       -0.039731    2.059175   -0.032581
     11          8           0        0.930141    2.858044   -0.798099
     12          8           0       -1.273882    2.711490    0.453855
     13          6           0        0.730545    1.013376    1.252781
     14          6           0       -0.838349   -1.053220    1.372847
     15          6           0       -2.160896   -0.329148    1.719215
     16          6           0       -3.262617   -0.472889    0.682706
     17          6           0       -3.744861   -1.741072    0.329717
     18          6           0       -4.778055   -1.884303   -0.593869
     19          6           0       -5.351641   -0.755574   -1.182306
     20          6           0       -4.880913    0.512170   -0.841028
     21          6           0       -3.844192    0.652121    0.084504
     22          1           0        4.612030    0.160342    2.060510
     23          1           0        4.968773   -1.365636    1.209456
     24          1           0        3.412416   -1.138686    2.046440
     25          1           0        4.931910    1.546598    0.127203
     26          1           0        4.015035    1.229865   -1.361569
     27          1           0        5.378827    0.167872   -0.906244
     28          1           0        1.293130   -2.082616    0.846382
     29          1           0       -1.420541    0.238434   -0.954112
     30          1           0        0.254207    0.252400   -1.632137
     31          1           0        0.339009    1.203614    2.253448
     32          1           0        1.816657    1.109565    1.217019
     33          1           0       -0.338908   -1.335464    2.305481
     34          1           0       -1.072850   -1.982562    0.844907
     35          1           0       -1.989400    0.731562    1.923207
     36          1           0       -2.514061   -0.766037    2.659043
     37          1           0       -3.308178   -2.625356    0.787633
     38          1           0       -5.137971   -2.876043   -0.850224
     39          1           0       -6.157142   -0.864758   -1.901847
     40          1           0       -5.316770    1.395556   -1.296821
     41          1           0       -3.462045    1.636395    0.334221
 ---------------------------------------------------------------------

 SCF Done:  E(RB3LYP) =  -1714.06401805     A.U. after   11 cycles

 The electronic state is 1-A.
 Alpha  occ. eigenvalues --  -89.14505 -89.09434 -19.16069 -19.15950 -19.15084
 Alpha  occ. eigenvalues --  -19.15046 -14.38570 -14.38316 -10.28396 -10.23025
 Alpha  occ. eigenvalues --  -10.22750 -10.22392 -10.22391 -10.21283 -10.20058
 Alpha  occ. eigenvalues --  -10.19962 -10.19171 -10.19047 -10.19030 -10.18971
 Alpha  occ. eigenvalues --  -10.18610  -8.16680  -8.12513  -6.13166  -6.13104
 Alpha  occ. eigenvalues --   -6.13088  -6.08953  -6.08863  -6.08776  -1.13772
 Alpha  occ. eigenvalues --   -1.10330  -1.02083  -1.00069  -0.95697  -0.94382
 Alpha  occ. eigenvalues --   -0.86241  -0.85369  -0.79723  -0.74984  -0.74444
 Alpha  occ. eigenvalues --   -0.73263  -0.72410  -0.71440  -0.67948  -0.63020
 Alpha  occ. eigenvalues --   -0.61138  -0.60539  -0.58125  -0.57339  -0.55315
 Alpha  occ. eigenvalues --   -0.53548  -0.51932  -0.51326  -0.50112  -0.49928
 Alpha  occ. eigenvalues --   -0.48812  -0.47663  -0.46625  -0.46069  -0.45767
 Alpha  occ. eigenvalues --   -0.45048  -0.44780  -0.44094  -0.43046  -0.42619
 Alpha  occ. eigenvalues --   -0.41705  -0.41621  -0.41255  -0.40662  -0.40296
 Alpha  occ. eigenvalues --   -0.39365  -0.37081  -0.36696  -0.36167  -0.35483
 Alpha  occ. eigenvalues --   -0.33901  -0.33690  -0.33662  -0.33452  -0.32649
 Alpha  occ. eigenvalues --   -0.32072  -0.31961  -0.30664  -0.30220  -0.28147
 Alpha  occ. eigenvalues --   -0.26254  -0.25206  -0.24499
 Alpha virt. eigenvalues --   -0.00690  -0.00297   0.03085   0.03995   0.05048
 Alpha virt. eigenvalues --    0.05407   0.05600   0.05925   0.07085   0.08622
 Alpha virt. eigenvalues --    0.09503   0.10038   0.11042   0.11187   0.12223

 Mulliken charges:
               1
     1  C   -0.323878
     2  N   -0.535193
     3  C   -0.323571
     4  S    1.323972
     5  O   -0.558618
     6  O   -0.540462
     7  N   -0.738923
     8  C    0.228014
     9  C   -0.519274
    10  S    1.114900
    11  O   -0.534392
    12  O   -0.554238
    13  C   -0.517441
    14  C   -0.325677
    15  C   -0.375915
    16  C    0.145638
    17  C   -0.186538
    18  C   -0.137639
    19  C   -0.140487
    20  C   -0.137658
    21  C   -0.210233
    22  H    0.185806
    23  H    0.181025
    24  H    0.170223
    25  H    0.179601
    26  H    0.207568
    27  H    0.166193
    28  H    0.386641
    29  H    0.230862
    30  H    0.254612
    31  H    0.218835
    32  H    0.248844
    33  H    0.162484
    34  H    0.179440
    35  H    0.176231
    36  H    0.172346
    37  H    0.136172
    38  H    0.141047
    39  H    0.140215
    40  H    0.141558
    41  H    0.167909
 Sum of Mulliken charges =   0.00000

 Dipole moment (field-independent basis, Debye):
    X=              1.0815    Y=             -3.7938    Z=              6.1116  Tot=              7.2742
 Quadrupole moment (field-independent basis, Debye-Ang):
   XX=           -125.5535   YY=           -156.0953   ZZ=           -135.1290
   XY=             11.9635   XZ=             17.6053   YZ=             -4.2968

 Normal termination of Gaussian 09 at Fri Oct  2 06:24:04 2020.
