 Gaussian 09, Revision D.01,

 -----------------
 #p b3lyp/6-31G(d)
 -----------------

 ------------------
 SM40.n.12w.pdb.xyz
 ------------------
 Symbolic Z-matrix:
 Charge =  0 Multiplicity = 1

 SCF Done:  E(RB3LYP) =  -1714.04177062     A.U. after   15 cycles
 Normal termination of Gaussian 09 at Fri Oct  2 06:17:16 2020.
 Gaussian 09:  AM64L-G09RevD.01 24-Apr-2013

 ----------------------------------------------------------------------
 #p b3lyp/6-31G(d) scrf=(iefpcm,read,solvent=n-Octanol) geom=allcheck g
 uess=read
 ----------------------------------------------------------------------

 Structure from the checkpoint file:  "SM40.n.12w.pdb.xyz.mst.n.o.chk"
 ------------------
 SM40.n.12w.pdb.xyz
 ------------------
 Charge =  0 Multiplicity = 1

                         Standard orientation:
 ---------------------------------------------------------------------
 Center     Atomic      Atomic             Coordinates (Angstroms)
 Number     Number       Type             X           Y           Z
 ---------------------------------------------------------------------
      1          7           0       -0.877365   -0.888954   -0.680649
      2          7           0       -2.727254   -1.468711    1.015797
      3          6           0       -0.353438    0.466440   -0.462388
      4          6           0       -0.813248    1.095410    0.887716
      5          6           0       -0.912196    1.593926   -1.403405
      6          6           0        1.177547    0.391021   -0.572494
      7          6           0        1.846414   -0.565488    0.425906
      8          6           0        3.350871   -0.582315    0.276135
      9          6           0        4.149187    0.364541    0.930485
     10          6           0        5.535016    0.368022    0.766387
     11          6           0        6.144705   -0.579802   -0.055460
     12          6           0        5.361113   -1.529765   -0.712372
     13          6           0        3.976253   -1.528276   -0.545213
     14          6           0       -4.128781   -1.372570    1.454060
     15          6           0       -1.997209   -2.600385    1.601600
     16          8           0       -3.366626   -0.160060   -1.029766
     17          8           0       -2.427688    3.257584    0.234377
     18          8           0        0.093725    3.568185    0.192345
     19          8           0       -2.591759   -2.547015   -1.381610
     20         16           0       -2.506881   -1.283968   -0.640100
     21         16           0       -1.083926    2.692327    0.046688
     22          1           0       -0.461731   -1.358625   -1.484424
     23          1           0       -0.068277    1.132219    1.681774
     24          1           0       -1.752878    0.681660    1.255293
     25          1           0       -0.235070    1.970346   -2.169521
     26          1           0       -1.899768    1.359740   -1.799220
     27          1           0        1.564932    1.405317   -0.436463
     28          1           0        1.437676    0.097990   -1.597732
     29          1           0        1.445154   -1.572477    0.280122
     30          1           0        1.580741   -0.264367    1.444994
     31          1           0        3.682519    1.102502    1.576598
     32          1           0        6.136773    1.106532    1.285773
     33          1           0        7.222442   -0.581327   -0.180791
     34          1           0        5.826511   -2.274511   -1.349355
     35          1           0        3.370095   -2.274359   -1.052218
     36          1           0       -4.588071   -0.495584    1.002831
     37          1           0       -4.119425   -1.257272    2.539009
     38          1           0       -4.709094   -2.267252    1.197727
     39          1           0       -0.961810   -2.572206    1.262110
     40          1           0       -2.445729   -3.565249    1.338050
     41          1           0       -2.018377   -2.477268    2.685488
 ---------------------------------------------------------------------

 SCF Done:  E(RB3LYP) =  -1714.07127779     A.U. after   11 cycles

 The electronic state is 1-A.
 Alpha  occ. eigenvalues --  -89.14544 -89.09578 -19.16268 -19.16098 -19.15229
 Alpha  occ. eigenvalues --  -19.14967 -14.38835 -14.38653 -10.28174 -10.23055
 Alpha  occ. eigenvalues --  -10.22750 -10.22733 -10.22715 -10.20979 -10.20101
 Alpha  occ. eigenvalues --  -10.20026 -10.19241 -10.19228 -10.19134 -10.19126
 Alpha  occ. eigenvalues --  -10.19077  -8.16784  -8.12641  -6.13272  -6.13209
 Alpha  occ. eigenvalues --   -6.13166  -6.09076  -6.08992  -6.08912  -1.13840
 Alpha  occ. eigenvalues --   -1.10495  -1.02023  -1.00214  -0.96161  -0.94780
 Alpha  occ. eigenvalues --   -0.86398  -0.85774  -0.80033  -0.74900  -0.74629
 Alpha  occ. eigenvalues --   -0.73392  -0.72745  -0.71676  -0.67709  -0.63189
 Alpha  occ. eigenvalues --   -0.61013  -0.60713  -0.58451  -0.57681  -0.54831
 Alpha  occ. eigenvalues --   -0.53497  -0.52070  -0.51757  -0.50475  -0.49258
 Alpha  occ. eigenvalues --   -0.48969  -0.47892  -0.46812  -0.46280  -0.45848
 Alpha  occ. eigenvalues --   -0.45138  -0.44786  -0.44083  -0.43194  -0.42364
 Alpha  occ. eigenvalues --   -0.42133  -0.42087  -0.41588  -0.41197  -0.39635
 Alpha  occ. eigenvalues --   -0.38922  -0.38506  -0.36487  -0.35935  -0.35574
 Alpha  occ. eigenvalues --   -0.34996  -0.34045  -0.33921  -0.33550  -0.32860
 Alpha  occ. eigenvalues --   -0.32243  -0.32004  -0.30708  -0.30193  -0.28118
 Alpha  occ. eigenvalues --   -0.26654  -0.25339  -0.24633
 Alpha virt. eigenvalues --   -0.00513  -0.00417   0.02996   0.04619   0.05308
 Alpha virt. eigenvalues --    0.05420   0.05974   0.06489   0.06977   0.08077
 Alpha virt. eigenvalues --    0.08971   0.09444   0.10055   0.10646   0.11743

 Mulliken charges:
               1
     1  N   -0.739069
     2  N   -0.531160
     3  C    0.192368
     4  C   -0.505593
     5  C   -0.503047
     6  C   -0.309785
     7  C   -0.363518
     8  C    0.168838
     9  C   -0.187419
    10  C   -0.138242
    11  C   -0.140534
    12  C   -0.138052
    13  C   -0.189745
    14  C   -0.331126
    15  C   -0.328383
    16  O   -0.560167
    17  O   -0.527219
    18  O   -0.552812
    19  O   -0.540192
    20  S    1.334289
    21  S    1.103651
    22  H    0.382229
    23  H    0.218332
    24  H    0.243712
    25  H    0.218626
    26  H    0.246785
    27  H    0.185360
    28  H    0.164887
    29  H    0.164935
    30  H    0.154914
    31  H    0.135140
    32  H    0.142265
    33  H    0.140818
    34  H    0.141620
    35  H    0.133237
    36  H    0.205730
    37  H    0.184443
    38  H    0.171105
    39  H    0.194302
    40  H    0.175205
    41  H    0.183271
 Sum of Mulliken charges =   0.00000

 Dipole moment (field-independent basis, Debye):
    X=              3.3041    Y=             -5.9147    Z=              2.0281  Tot=              7.0721
 Quadrupole moment (field-independent basis, Debye-Ang):
   XX=           -141.5774   YY=           -163.0056   ZZ=           -129.7142
   XY=              7.6503   XZ=            -14.1341   YZ=             -8.0973

 Normal termination of Gaussian 09 at Fri Oct  2 06:22:03 2020.
