 Gaussian 09, Revision D.01,

 -----------------
 #p b3lyp/6-31G(d)
 -----------------

 -----------------
 SM40.n.20.pdb.xyz
 -----------------
 Symbolic Z-matrix:
 Charge =  0 Multiplicity = 1

 SCF Done:  E(RB3LYP) =  -1714.03873308     A.U. after   16 cycles
 Normal termination of Gaussian 09 at Fri Oct  2 02:39:45 2020.
 Gaussian 09:  AM64L-G09RevD.01 24-Apr-2013

 ----------------------------------------------------------------------
 #p b3lyp/6-31G(d) scrf=(iefpcm,read,solvent=Water) geom=allcheck guess
 =read
 ----------------------------------------------------------------------

 Structure from the checkpoint file:  "SM40.n.20.pdb.xyz.mst.n.w.chk"
 -----------------
 SM40.n.20.pdb.xyz
 -----------------
 Charge =  0 Multiplicity = 1

                         Standard orientation:
 ---------------------------------------------------------------------
 Center     Atomic      Atomic             Coordinates (Angstroms)
 Number     Number       Type             X           Y           Z
 ---------------------------------------------------------------------
      1          6           0        0.100411    3.518225    1.246865
      2          7           0       -1.003400    2.798779    0.590956
      3          6           0       -2.147778    3.656981    0.235296
      4         16           0       -0.529403    1.722805   -0.601098
      5          8           0       -1.762331    1.257287   -1.251970
      6          8           0        0.541093    2.227375   -1.477783
      7          7           0        0.189999    0.582903    0.397370
      8          6           0        1.152900   -0.387607   -0.154456
      9          6           0        1.885077   -1.082231    1.045880
     10         16           0        3.494002   -0.733487    0.264620
     11          8           0        4.446517   -0.004477    1.122737
     12          8           0        3.991726   -1.900364   -0.496589
     13          6           0        2.414838    0.331231   -0.739821
     14          6           0        0.580252   -1.389520   -1.180369
     15          6           0       -0.311337   -2.545308   -0.671981
     16          6           0       -1.688384   -2.197809   -0.143330
     17          6           0       -2.754064   -1.969747   -1.025141
     18          6           0       -4.029821   -1.674085   -0.548240
     19          6           0       -4.268177   -1.603559    0.825788
     20          6           0       -3.220928   -1.836803    1.716733
     21          6           0       -1.944057   -2.136806    1.234363
     22          1           0       -0.302041    3.980418    2.150669
     23          1           0        0.526151    4.298710    0.605013
     24          1           0        0.875464    2.808209    1.529354
     25          1           0       -2.511124    4.105350    1.162437
     26          1           0       -2.936669    3.048901   -0.201807
     27          1           0       -1.869362    4.458723   -0.459685
     28          1           0       -0.524068    0.147463    0.985542
     29          1           0        1.692751   -2.140245    1.212148
     30          1           0        1.795361   -0.513474    1.971076
     31          1           0        2.573468    0.248077   -1.813967
     32          1           0        2.519645    1.361074   -0.409485
     33          1           0        1.436521   -1.849685   -1.683132
     34          1           0        0.049644   -0.814362   -1.945601
     35          1           0        0.233012   -3.110947    0.090689
     36          1           0       -0.429341   -3.225562   -1.522111
     37          1           0       -2.582024   -2.029670   -2.095614
     38          1           0       -4.840522   -1.504463   -1.250298
     39          1           0       -5.262014   -1.375359    1.197216
     40          1           0       -3.395879   -1.795489    2.786758
     41          1           0       -1.138365   -2.334854    1.935476
 ---------------------------------------------------------------------

 SCF Done:  E(RB3LYP) =  -1714.06073107     A.U. after   11 cycles

 The electronic state is 1-A.
 Alpha  occ. eigenvalues --  -89.14026 -89.10039 -19.15879 -19.15711 -19.15619
 Alpha  occ. eigenvalues --  -19.15504 -14.38142 -14.38040 -10.27993 -10.23414
 Alpha  occ. eigenvalues --  -10.23044 -10.21983 -10.21971 -10.20200 -10.19936
 Alpha  occ. eigenvalues --  -10.19611 -10.19142 -10.19053 -10.19020 -10.18905
 Alpha  occ. eigenvalues --  -10.18814  -8.16256  -8.13122  -6.12734  -6.12691
 Alpha  occ. eigenvalues --   -6.12644  -6.09570  -6.09471  -6.09372  -1.13153
 Alpha  occ. eigenvalues --   -1.10924  -1.01165  -1.00636  -0.95704  -0.94066
 Alpha  occ. eigenvalues --   -0.86263  -0.85668  -0.79348  -0.74474  -0.74291
 Alpha  occ. eigenvalues --   -0.72861  -0.72537  -0.71767  -0.66972  -0.63170
 Alpha  occ. eigenvalues --   -0.60568  -0.60239  -0.58532  -0.57072  -0.54940
 Alpha  occ. eigenvalues --   -0.52720  -0.51891  -0.51306  -0.50716  -0.49159
 Alpha  occ. eigenvalues --   -0.48329  -0.46801  -0.46477  -0.46343  -0.45524
 Alpha  occ. eigenvalues --   -0.45143  -0.44733  -0.44149  -0.43123  -0.41925
 Alpha  occ. eigenvalues --   -0.41633  -0.41417  -0.40734  -0.39853  -0.39119
 Alpha  occ. eigenvalues --   -0.38653  -0.38215  -0.36582  -0.36009  -0.35466
 Alpha  occ. eigenvalues --   -0.34477  -0.34139  -0.33697  -0.33130  -0.32942
 Alpha  occ. eigenvalues --   -0.32826  -0.31365  -0.31090  -0.29757  -0.28247
 Alpha  occ. eigenvalues --   -0.26142  -0.25200  -0.24412
 Alpha virt. eigenvalues --   -0.00637  -0.00471   0.02897   0.04010   0.04622
 Alpha virt. eigenvalues --    0.05507   0.06549   0.07797   0.08484   0.08973
 Alpha virt. eigenvalues --    0.09671   0.10367   0.11169   0.11390   0.11920

 Mulliken charges:
               1
     1  C   -0.324742
     2  N   -0.528848
     3  C   -0.323844
     4  S    1.316112
     5  O   -0.553367
     6  O   -0.579468
     7  N   -0.725276
     8  C    0.155775
     9  C   -0.504213
    10  S    1.106330
    11  O   -0.553354
    12  O   -0.571834
    13  C   -0.471465
    14  C   -0.280749
    15  C   -0.376733
    16  C    0.169641
    17  C   -0.173925
    18  C   -0.142096
    19  C   -0.150271
    20  C   -0.142512
    21  C   -0.228338
    22  H    0.188275
    23  H    0.173705
    24  H    0.192139
    25  H    0.187256
    26  H    0.199551
    27  H    0.171331
    28  H    0.394240
    29  H    0.237432
    30  H    0.238812
    31  H    0.235544
    32  H    0.236966
    33  H    0.172299
    34  H    0.183445
    35  H    0.163634
    36  H    0.173832
    37  H    0.143157
    38  H    0.148374
    39  H    0.148363
    40  H    0.150042
    41  H    0.144781
 Sum of Mulliken charges =   0.00000

 Dipole moment (field-independent basis, Debye):
    X=             -6.3728    Y=              1.6164    Z=              3.8257  Tot=              7.6067
 Quadrupole moment (field-independent basis, Debye-Ang):
   XX=           -170.5799   YY=           -128.5437   ZZ=           -134.3474
   XY=              2.7776   XZ=             -6.7468   YZ=              6.8829

 Normal termination of Gaussian 09 at Fri Oct  2 02:45:05 2020.
