 Gaussian 09, Revision D.01,

 -----------------
 #p b3lyp/6-31G(d)
 -----------------

 -----------------
 SM40.n.17.pdb.xyz
 -----------------
 Symbolic Z-matrix:
 Charge =  0 Multiplicity = 1

 SCF Done:  E(RB3LYP) =  -1714.03757030     A.U. after   15 cycles
 Normal termination of Gaussian 09 at Thu Oct  1 22:35:10 2020.
 Gaussian 09:  AM64L-G09RevD.01 24-Apr-2013

 ----------------------------------------------------------------------
 #p b3lyp/6-31G(d) scrf=(iefpcm,read,solvent=Water) geom=allcheck guess
 =read
 ----------------------------------------------------------------------

 Structure from the checkpoint file:  "SM40.n.17.pdb.xyz.mst.n.w.chk"
 -----------------
 SM40.n.17.pdb.xyz
 -----------------
 Charge =  0 Multiplicity = 1

                         Standard orientation:
 ---------------------------------------------------------------------
 Center     Atomic      Atomic             Coordinates (Angstroms)
 Number     Number       Type             X           Y           Z
 ---------------------------------------------------------------------
      1          6           0       -4.609343   -0.802318    1.119720
      2          7           0       -3.210750   -1.196793    0.870254
      3          6           0       -2.819783   -2.452135    1.532817
      4         16           0       -2.739272   -1.089711   -0.738953
      5          8           0       -3.015271   -2.313268   -1.507008
      6          8           0       -3.287753    0.181488   -1.233313
      7          7           0       -1.077825   -1.064352   -0.575548
      8          6           0       -0.267864    0.130340   -0.265250
      9          6           0       -0.711915    0.827339    1.060711
     10         16           0       -0.805329    2.438203    0.206201
     11          8           0       -2.156655    3.031932    0.210453
     12          8           0        0.337244    3.317156    0.529339
     13          6           0       -0.472241    1.356739   -1.227271
     14          6           0        1.181972   -0.389977   -0.235046
     15          6           0        2.278544    0.618254    0.144103
     16          6           0        3.645490   -0.029317    0.109983
     17          6           0        4.412260   -0.022294   -1.063596
     18          6           0        5.662641   -0.641951   -1.104371
     19          6           0        6.167714   -1.279107    0.030050
     20          6           0        5.413983   -1.291407    1.205399
     21          6           0        4.164011   -0.670598    1.242637
     22          1           0       -4.722866   -0.694422    2.198736
     23          1           0       -5.325279   -1.551700    0.760320
     24          1           0       -4.805528    0.154566    0.640940
     25          1           0       -2.957740   -2.309591    2.605869
     26          1           0       -1.767353   -2.649538    1.333507
     27          1           0       -3.426217   -3.302284    1.200771
     28          1           0       -0.681433   -1.625078   -1.330742
     29          1           0        0.013934    0.815101    1.872506
     30          1           0       -1.694800    0.511551    1.411976
     31          1           0        0.395981    1.668121   -1.807578
     32          1           0       -1.361719    1.276582   -1.850274
     33          1           0        1.411351   -0.795017   -1.226359
     34          1           0        1.209997   -1.229220    0.466192
     35          1           0        2.089841    1.014831    1.146131
     36          1           0        2.263594    1.469978   -0.542227
     37          1           0        4.028357    0.477230   -1.948880
     38          1           0        6.243247   -0.621916   -2.021805
     39          1           0        7.141049   -1.758194   -0.000383
     40          1           0        5.799909   -1.779704    2.095138
     41          1           0        3.585982   -0.679017    2.162173
 ---------------------------------------------------------------------

 SCF Done:  E(RB3LYP) =  -1714.06504952     A.U. after   11 cycles

 The electronic state is 1-A.
 Alpha  occ. eigenvalues --  -89.14343 -89.09676 -19.16051 -19.15926 -19.15353
 Alpha  occ. eigenvalues --  -19.15334 -14.38243 -14.38036 -10.27839 -10.22682
 Alpha  occ. eigenvalues --  -10.22512 -10.22083 -10.22031 -10.20418 -10.19991
 Alpha  occ. eigenvalues --  -10.19619 -10.19128 -10.19114 -10.18984 -10.18978
 Alpha  occ. eigenvalues --  -10.18966  -8.16562  -8.12750  -6.13048  -6.12996
 Alpha  occ. eigenvalues --   -6.12946  -6.09199  -6.09101  -6.09002  -1.13515
 Alpha  occ. eigenvalues --   -1.10545  -1.01673  -1.00249  -0.95591  -0.94125
 Alpha  occ. eigenvalues --   -0.86125  -0.85409  -0.79638  -0.74761  -0.74480
 Alpha  occ. eigenvalues --   -0.72713  -0.72315  -0.71408  -0.67599  -0.62393
 Alpha  occ. eigenvalues --   -0.60594  -0.60400  -0.58055  -0.56941  -0.54107
 Alpha  occ. eigenvalues --   -0.53595  -0.51867  -0.51035  -0.50371  -0.49573
 Alpha  occ. eigenvalues --   -0.48681  -0.47565  -0.46570  -0.46143  -0.45573
 Alpha  occ. eigenvalues --   -0.44972  -0.44533  -0.43992  -0.42769  -0.41918
 Alpha  occ. eigenvalues --   -0.41726  -0.41364  -0.40945  -0.40370  -0.39417
 Alpha  occ. eigenvalues --   -0.38707  -0.37644  -0.36199  -0.35607  -0.35403
 Alpha  occ. eigenvalues --   -0.34702  -0.33887  -0.33570  -0.33312  -0.33169
 Alpha  occ. eigenvalues --   -0.32440  -0.31898  -0.30678  -0.30157  -0.27980
 Alpha  occ. eigenvalues --   -0.26251  -0.25315  -0.24616
 Alpha virt. eigenvalues --   -0.00444  -0.00399   0.02987   0.04196   0.05269
 Alpha virt. eigenvalues --    0.05804   0.06122   0.06695   0.07373   0.08995
 Alpha virt. eigenvalues --    0.09477   0.09963   0.10961   0.11219   0.12368

 Mulliken charges:
               1
     1  C   -0.325964
     2  N   -0.531455
     3  C   -0.325786
     4  S    1.327533
     5  O   -0.565404
     6  O   -0.573105
     7  N   -0.740135
     8  C    0.202182
     9  C   -0.516037
    10  S    1.123699
    11  O   -0.561608
    12  O   -0.576406
    13  C   -0.500891
    14  C   -0.297454
    15  C   -0.380760
    16  C    0.158691
    17  C   -0.195309
    18  C   -0.149615
    19  C   -0.150283
    20  C   -0.149778
    21  C   -0.195209
    22  H    0.189779
    23  H    0.172410
    24  H    0.199879
    25  H    0.188786
    26  H    0.195324
    27  H    0.174676
    28  H    0.411094
    29  H    0.233449
    30  H    0.252174
    31  H    0.230165
    32  H    0.245853
    33  H    0.174036
    34  H    0.178662
    35  H    0.167747
    36  H    0.169531
    37  H    0.145649
    38  H    0.149860
    39  H    0.149123
    40  H    0.150013
    41  H    0.144884
 Sum of Mulliken charges =   0.00000

 Dipole moment (field-independent basis, Debye):
    X=              3.4088    Y=             -7.0375    Z=              2.5224  Tot=              8.2164
 Quadrupole moment (field-independent basis, Debye-Ang):
   XX=           -140.6710   YY=           -165.4093   ZZ=           -127.7566
   XY=              4.0084   XZ=            -19.4797   YZ=            -13.0025

 Normal termination of Gaussian 09 at Thu Oct  1 22:40:04 2020.
