 Gaussian 09, Revision D.01,

 -----------------
 #p b3lyp/6-31G(d)
 -----------------

 --------------------
 SM40_38w.n.2.pdb.xyz
 --------------------
 Symbolic Z-matrix:
 Charge =  0 Multiplicity = 1

 SCF Done:  E(RB3LYP) =  -1714.04118132     A.U. after   16 cycles
 Normal termination of Gaussian 09 at Mon Sep 21 21:01:28 2020.
 Gaussian 09:  AM64L-G09RevD.01 24-Apr-2013

 ----------------------------------------------------------------------
 #p b3lyp/6-31G(d) scrf=(iefpcm,read,solvent=Water) geom=allcheck guess
 =read
 ----------------------------------------------------------------------

 Structure from the checkpoint file:  "SM40_38w.n.2.pdb.xyz.mst.n.w.chk"
 --------------------
 SM40_38w.n.2.pdb.xyz
 --------------------
 Charge =  0 Multiplicity = 1

                         Standard orientation:
 ---------------------------------------------------------------------
 Center     Atomic      Atomic             Coordinates (Angstroms)
 Number     Number       Type             X           Y           Z
 ---------------------------------------------------------------------
      1         16           0       -1.810564   -1.805041   -0.398495
      2          7           0       -1.309156   -0.360098   -1.076639
      3          6           0       -0.355360    0.552274   -0.403119
      4          6           0       -0.944077    1.029928    0.965397
      5         16           0       -1.467017    2.602993    0.203695
      6          6           0       -0.460508    1.921248   -1.156210
      7          8           0       -2.908958    2.618965   -0.117815
      8          8           0       -0.881671    3.800988    0.835697
      9          6           0        1.070197   -0.034521   -0.365000
     10          6           0        2.142788    0.823159    0.330935
     11          6           0        3.513338    0.188832    0.227760
     12          6           0        4.387933    0.543732   -0.807983
     13          6           0        5.641392   -0.060119   -0.925531
     14          6           0        6.041152   -1.031072   -0.005230
     15          6           0        5.179079   -1.390716    1.033101
     16          6           0        3.926903   -0.784838    1.147777
     17          8           0       -0.866608   -2.336664    0.593815
     18          8           0       -2.174634   -2.650237   -1.547298
     19          1           0       -1.049454   -0.541450   -2.045839
     20          1           0       -0.191262    1.217191    1.728313
     21          1           0       -1.775187    0.443920    1.354015
     22          1           0        0.484859    2.458900   -1.226467
     23          1           0       -0.971169    1.901603   -2.118605
     24          1           0        1.371946   -0.215179   -1.402687
     25          1           0        1.012316   -1.009732    0.124246
     26          1           0        1.880963    0.955732    1.385230
     27          1           0        2.179488    1.820966   -0.118741
     28          1           0        4.083791    1.301783   -1.523561
     29          1           0        6.306494    0.231972   -1.733147
     30          1           0        7.016516   -1.499158   -0.092905
     31          1           0        5.482995   -2.141291    1.757683
     32          1           0        3.264011   -1.066600    1.960535
     33          7           0       -3.146374   -1.283812    0.481179
     34          6           0       -3.585454   -2.227836    1.523902
     35          1           0       -2.728245   -2.530705    2.122958
     36          1           0       -4.296193   -1.696661    2.158184
     37          1           0       -4.077395   -3.114849    1.104977
     38          6           0       -4.247196   -0.761829   -0.342817
     39          1           0       -4.779806   -1.558329   -0.875124
     40          1           0       -4.941343   -0.252400    0.327043
     41          1           0       -3.849473   -0.039451   -1.054173
 ---------------------------------------------------------------------

 SCF Done:  E(RB3LYP) =  -1714.06678374     A.U. after   11 cycles

 The electronic state is 1-A.
 Alpha  occ. eigenvalues --  -89.14262 -89.09948 -19.16035 -19.15881 -19.15707
 Alpha  occ. eigenvalues --  -19.15509 -14.38089 -14.38072 -10.27925 -10.23269
 Alpha  occ. eigenvalues --  -10.22905 -10.22023 -10.21757 -10.20002 -10.19877
 Alpha  occ. eigenvalues --  -10.19690 -10.19124 -10.19114 -10.18970 -10.18960
 Alpha  occ. eigenvalues --  -10.18955  -8.16486  -8.13012  -6.12974  -6.12917
 Alpha  occ. eigenvalues --   -6.12868  -6.09460  -6.09364  -6.09265  -1.13427
 Alpha  occ. eigenvalues --   -1.10786  -1.01629  -1.00497  -0.95664  -0.94118
 Alpha  occ. eigenvalues --   -0.86095  -0.85484  -0.79551  -0.74466  -0.74384
 Alpha  occ. eigenvalues --   -0.72940  -0.72492  -0.71257  -0.67384  -0.62710
 Alpha  occ. eigenvalues --   -0.60574  -0.60289  -0.58330  -0.57226  -0.54404
 Alpha  occ. eigenvalues --   -0.53333  -0.51867  -0.51158  -0.50282  -0.49669
 Alpha  occ. eigenvalues --   -0.48592  -0.47044  -0.46881  -0.46206  -0.45460
 Alpha  occ. eigenvalues --   -0.45065  -0.44368  -0.43781  -0.42773  -0.41916
 Alpha  occ. eigenvalues --   -0.41824  -0.41514  -0.41040  -0.40626  -0.38728
 Alpha  occ. eigenvalues --   -0.38681  -0.37857  -0.36827  -0.35669  -0.35420
 Alpha  occ. eigenvalues --   -0.34512  -0.33947  -0.33821  -0.33448  -0.32895
 Alpha  occ. eigenvalues --   -0.32619  -0.31805  -0.31069  -0.29745  -0.28561
 Alpha  occ. eigenvalues --   -0.26114  -0.25303  -0.24508
 Alpha virt. eigenvalues --   -0.00443  -0.00366   0.03221   0.03776   0.04797
 Alpha virt. eigenvalues --    0.05918   0.06220   0.06898   0.07815   0.08911
 Alpha virt. eigenvalues --    0.09284   0.10049   0.10807   0.11133   0.12230

 Mulliken charges:
               1
     1  S    1.334132
     2  N   -0.733844
     3  C    0.157535
     4  C   -0.506793
     5  S    1.117082
     6  C   -0.492436
     7  O   -0.562506
     8  O   -0.559336
     9  C   -0.280257
    10  C   -0.383241
    11  C    0.159192
    12  C   -0.196424
    13  C   -0.149812
    14  C   -0.150411
    15  C   -0.150134
    16  C   -0.194428
    17  O   -0.574326
    18  O   -0.565806
    19  H    0.412496
    20  H    0.231047
    21  H    0.256555
    22  H    0.231993
    23  H    0.239491
    24  H    0.166311
    25  H    0.189768
    26  H    0.168824
    27  H    0.163758
    28  H    0.145010
    29  H    0.149795
    30  H    0.149070
    31  H    0.149896
    32  H    0.145795
    33  N   -0.528293
    34  C   -0.326578
    35  H    0.197768
    36  H    0.189404
    37  H    0.171125
    38  C   -0.326121
    39  H    0.169795
    40  H    0.186109
    41  H    0.198793
 Sum of Mulliken charges =   0.00000

 Dipole moment (field-independent basis, Debye):
    X=              1.6721    Y=             -1.3171    Z=             -1.1293  Tot=              2.4096
 Quadrupole moment (field-independent basis, Debye-Ang):
   XX=           -129.0598   YY=           -172.1142   ZZ=           -128.5542
   XY=             11.2195   XZ=             -8.5521   YZ=            -15.7162

 Normal termination of Gaussian 09 at Mon Sep 21 21:06:10 2020.
