 Gaussian 09, Revision D.01,

 -----------------
 #p b3lyp/6-31G(d)
 -----------------

 ----------------
 SM40.n.1.pdb.xyz
 ----------------
 Symbolic Z-matrix:
 Charge =  0 Multiplicity = 1

 SCF Done:  E(RB3LYP) =  -1714.03643748     A.U. after   16 cycles
 Normal termination of Gaussian 09 at Thu Oct  1 22:34:03 2020.
 Gaussian 09:  AM64L-G09RevD.01 24-Apr-2013

 ----------------------------------------------------------------------
 #p b3lyp/6-31G(d) scrf=(iefpcm,read,solvent=Water) geom=allcheck guess
 =read
 ----------------------------------------------------------------------

 Structure from the checkpoint file:  "SM40.n.1.pdb.xyz.mst.n.w.chk"
 ----------------
 SM40.n.1.pdb.xyz
 ----------------
 Charge =  0 Multiplicity = 1

                         Standard orientation:
 ---------------------------------------------------------------------
 Center     Atomic      Atomic             Coordinates (Angstroms)
 Number     Number       Type             X           Y           Z
 ---------------------------------------------------------------------
      1          6           0       -0.816771    3.498682    1.298838
      2          7           0       -0.068612    3.197796    0.068461
      3          6           0        1.351717    3.562587    0.133694
      4         16           0       -0.394108    1.710082   -0.620216
      5          8           0       -1.855146    1.597229   -0.654671
      6          8           0        0.384675    1.625908   -1.858850
      7          7           0        0.248469    0.554738    0.428145
      8          6           0        1.042944   -0.587891   -0.059940
      9          6           0        1.796822   -1.210830    1.166073
     10         16           0        3.361456   -1.155204    0.236691
     11          8           0        4.447583   -0.424166    0.915771
     12          8           0        3.677447   -2.461930   -0.380016
     13          6           0        2.318973   -0.122447   -0.840130
     14          6           0        0.287037   -1.652718   -0.880695
     15          6           0       -0.775164   -2.511018   -0.158129
     16          6           0       -2.139398   -1.888258    0.049794
     17          6           0       -3.007050   -1.697261   -1.032483
     18          6           0       -4.274933   -1.147338   -0.848647
     19          6           0       -4.701491   -0.779599    0.430853
     20          6           0       -3.851235   -0.973759    1.520369
     21          6           0       -2.582255   -1.527400    1.328289
     22          1           0       -0.739303    4.573933    1.472706
     23          1           0       -0.411969    2.968826    2.170603
     24          1           0       -1.864453    3.236587    1.159706
     25          1           0        1.403016    4.631171    0.355726
     26          1           0        1.816968    3.383773   -0.833967
     27          1           0        1.886072    3.011723    0.916934
     28          1           0       -0.456480    0.281767    1.114639
     29          1           0        1.504116   -2.211975    1.476938
     30          1           0        1.848437   -0.531578    2.016710
     31          1           0        2.368379   -0.385904   -1.895262
     32          1           0        2.575584    0.923347   -0.687257
     33          1           0        1.050097   -2.335096   -1.267201
     34          1           0       -0.151836   -1.162575   -1.753881
     35          1           0       -0.384360   -2.847966    0.807937
     36          1           0       -0.898861   -3.415060   -0.764410
     37          1           0       -2.689457   -1.987677   -2.030463
     38          1           0       -4.932127   -1.009259   -1.702122
     39          1           0       -5.688462   -0.352385    0.576741
     40          1           0       -4.173574   -0.701163    2.519324
     41          1           0       -1.929989   -1.689095    2.181568
 ---------------------------------------------------------------------

 SCF Done:  E(RB3LYP) =  -1714.05995451     A.U. after   11 cycles

 The electronic state is 1-A.
 Alpha  occ. eigenvalues --  -89.14204 -89.10050 -19.16171 -19.15877 -19.15790
 Alpha  occ. eigenvalues --  -19.15642 -14.38118 -14.38009 -10.28025 -10.23320
 Alpha  occ. eigenvalues --  -10.23199 -10.22169 -10.22160 -10.20101 -10.19763
 Alpha  occ. eigenvalues --  -10.19552 -10.18992 -10.18953 -10.18854 -10.18796
 Alpha  occ. eigenvalues --  -10.18698  -8.16431  -8.13133  -6.12904  -6.12865
 Alpha  occ. eigenvalues --   -6.12827  -6.09582  -6.09483  -6.09383  -1.13619
 Alpha  occ. eigenvalues --   -1.10944  -1.01997  -1.00658  -0.95300  -0.94294
 Alpha  occ. eigenvalues --   -0.86145  -0.85539  -0.79297  -0.74343  -0.74078
 Alpha  occ. eigenvalues --   -0.72886  -0.72741  -0.71611  -0.67345  -0.63528
 Alpha  occ. eigenvalues --   -0.60467  -0.60367  -0.58403  -0.57039  -0.54923
 Alpha  occ. eigenvalues --   -0.52991  -0.52004  -0.51223  -0.50847  -0.49127
 Alpha  occ. eigenvalues --   -0.48605  -0.46885  -0.46752  -0.46313  -0.45651
 Alpha  occ. eigenvalues --   -0.45103  -0.44691  -0.44168  -0.43157  -0.41960
 Alpha  occ. eigenvalues --   -0.41873  -0.41589  -0.40913  -0.39705  -0.39031
 Alpha  occ. eigenvalues --   -0.38574  -0.38462  -0.36423  -0.36081  -0.35394
 Alpha  occ. eigenvalues --   -0.34304  -0.33846  -0.33506  -0.33270  -0.33019
 Alpha  occ. eigenvalues --   -0.32838  -0.31853  -0.31168  -0.29850  -0.28771
 Alpha  occ. eigenvalues --   -0.26203  -0.25085  -0.24243
 Alpha virt. eigenvalues --   -0.00554  -0.00275   0.02559   0.03930   0.04576
 Alpha virt. eigenvalues --    0.05448   0.06755   0.07821   0.08362   0.09210
 Alpha virt. eigenvalues --    0.09623   0.10372   0.10603   0.11190   0.11264

 Mulliken charges:
               1
     1  C   -0.339010
     2  N   -0.505507
     3  C   -0.339205
     4  S    1.348268
     5  O   -0.553273
     6  O   -0.592463
     7  N   -0.745634
     8  C    0.167638
     9  C   -0.500262
    10  S    1.106748
    11  O   -0.554200
    12  O   -0.571499
    13  C   -0.475023
    14  C   -0.276713
    15  C   -0.378983
    16  C    0.178304
    17  C   -0.186225
    18  C   -0.141258
    19  C   -0.150159
    20  C   -0.139115
    21  C   -0.224225
    22  H    0.191473
    23  H    0.171412
    24  H    0.200077
    25  H    0.192396
    26  H    0.197996
    27  H    0.171366
    28  H    0.388710
    29  H    0.238703
    30  H    0.237407
    31  H    0.237729
    32  H    0.228551
    33  H    0.170975
    34  H    0.179817
    35  H    0.160571
    36  H    0.175067
    37  H    0.142804
    38  H    0.147693
    39  H    0.146750
    40  H    0.147782
    41  H    0.144517
 Sum of Mulliken charges =   0.00000

 Dipole moment (field-independent basis, Debye):
    X=             -3.9534    Y=              2.0013    Z=              4.6865  Tot=              6.4496
 Quadrupole moment (field-independent basis, Debye-Ang):
   XX=           -171.3193   YY=           -132.9055   ZZ=           -132.4811
   XY=             15.0232   XZ=             -6.3104   YZ=              9.0073

 Normal termination of Gaussian 09 at Thu Oct  1 22:39:30 2020.
