 Gaussian 09, Revision D.01,

 -----------------
 #p b3lyp/6-31G(d)
 -----------------

 --------------------
 SM40_38.n.15.pdb.xyz
 --------------------
 Symbolic Z-matrix:
 Charge =  0 Multiplicity = 1

 SCF Done:  E(RB3LYP) =  -1714.03740765     A.U. after   15 cycles
 Normal termination of Gaussian 09 at Mon Sep 21 21:01:01 2020.
 Gaussian 09:  AM64L-G09RevD.01 24-Apr-2013

 ----------------------------------------------------------------------
 #p b3lyp/6-31G(d) scrf=(iefpcm,read,solvent=Water) geom=allcheck guess
 =read
 ----------------------------------------------------------------------

 Structure from the checkpoint file:  "SM40_38.n.15.pdb.xyz.mst.n.w.chk"
 --------------------
 SM40_38.n.15.pdb.xyz
 --------------------
 Charge =  0 Multiplicity = 1

                         Standard orientation:
 ---------------------------------------------------------------------
 Center     Atomic      Atomic             Coordinates (Angstroms)
 Number     Number       Type             X           Y           Z
 ---------------------------------------------------------------------
      1         16           0        2.751254   -1.076551   -0.735654
      2          7           0        1.086453   -1.070735   -0.601345
      3          6           0        0.266502    0.117308   -0.283922
      4          6           0        0.468268    1.357945   -1.233232
      5         16           0        0.810324    2.422048    0.210036
      6          6           0        0.711538    0.804759    1.049486
      7          8           0        2.162071    3.014373    0.218180
      8          8           0       -0.330222    3.300247    0.545146
      9          6           0       -1.185263   -0.408756   -0.261470
     10          6           0       -2.281747    0.614263    0.087178
     11          6           0       -3.651908   -0.028205    0.085630
     12          6           0       -4.156781   -0.639775    1.240460
     13          6           0       -5.410000   -1.253935    1.235856
     14          6           0       -6.180997   -1.264244    0.071096
     15          6           0       -5.688897   -0.656711   -1.085338
     16          6           0       -4.434369   -0.043683   -1.075835
     17          8           0        3.293798    0.205207   -1.207645
     18          8           0        3.054056   -2.289767   -1.509608
     19          1           0        0.711254   -1.614690   -1.377333
     20          1           0       -0.407349    1.678928   -1.796091
     21          1           0        1.349612    1.284973   -1.865925
     22          1           0       -0.012632    0.787876    1.864357
     23          1           0        1.693151    0.477489    1.393791
     24          1           0       -1.222288   -1.234876    0.454514
     25          1           0       -1.407099   -0.831690   -1.248426
     26          1           0       -2.266759    1.437682   -0.632932
     27          1           0       -2.088080    1.047944    1.071895
     28          1           0       -3.564132   -0.629389    2.151822
     29          1           0       -5.786459   -1.718652    2.141939
     30          1           0       -7.157197   -1.738017    0.067202
     31          1           0       -6.283564   -0.654338   -1.994028
     32          1           0       -4.059752    0.432708   -1.977299
     33          7           0        3.196802   -1.196708    0.878972
     34          6           0        4.582188   -0.777623    1.159348
     35          1           0        4.764973    0.193944    0.704810
     36          1           0        4.675898   -0.690985    2.242201
     37          1           0        5.320159   -1.502164    0.795415
     38          6           0        2.822155   -2.470090    1.516036
     39          1           0        3.454180   -3.300695    1.182215
     40          1           0        2.938042   -2.341096    2.593775
     41          1           0        1.778228   -2.688795    1.294254
 ---------------------------------------------------------------------

 SCF Done:  E(RB3LYP) =  -1714.06503955     A.U. after   11 cycles

 The electronic state is 1-A.
 Alpha  occ. eigenvalues --  -89.14328 -89.09654 -19.16043 -19.15915 -19.15339
 Alpha  occ. eigenvalues --  -19.15281 -14.38251 -14.38038 -10.27875 -10.22643
 Alpha  occ. eigenvalues --  -10.22513 -10.22084 -10.22053 -10.20456 -10.19963
 Alpha  occ. eigenvalues --  -10.19593 -10.19121 -10.19110 -10.18972 -10.18963
 Alpha  occ. eigenvalues --  -10.18956  -8.16553  -8.12728  -6.13037  -6.12987
 Alpha  occ. eigenvalues --   -6.12937  -6.09177  -6.09078  -6.08980  -1.13533
 Alpha  occ. eigenvalues --   -1.10507  -1.01683  -1.00205  -0.95572  -0.94126
 Alpha  occ. eigenvalues --   -0.86096  -0.85372  -0.79576  -0.74717  -0.74474
 Alpha  occ. eigenvalues --   -0.72713  -0.72295  -0.71414  -0.67570  -0.62366
 Alpha  occ. eigenvalues --   -0.60589  -0.60384  -0.58050  -0.56909  -0.54120
 Alpha  occ. eigenvalues --   -0.53580  -0.51842  -0.51003  -0.50342  -0.49523
 Alpha  occ. eigenvalues --   -0.48692  -0.47549  -0.46581  -0.46123  -0.45550
 Alpha  occ. eigenvalues --   -0.44960  -0.44513  -0.44001  -0.42724  -0.41912
 Alpha  occ. eigenvalues --   -0.41723  -0.41329  -0.40943  -0.40331  -0.39363
 Alpha  occ. eigenvalues --   -0.38689  -0.37647  -0.36210  -0.35601  -0.35414
 Alpha  occ. eigenvalues --   -0.34672  -0.33895  -0.33560  -0.33285  -0.33160
 Alpha  occ. eigenvalues --   -0.32415  -0.31891  -0.30637  -0.30142  -0.27987
 Alpha  occ. eigenvalues --   -0.26258  -0.25311  -0.24602
 Alpha virt. eigenvalues --   -0.00433  -0.00386   0.03003   0.04258   0.05275
 Alpha virt. eigenvalues --    0.05802   0.06159   0.06734   0.07400   0.09003
 Alpha virt. eigenvalues --    0.09490   0.09985   0.10986   0.11230   0.12378

 Mulliken charges:
               1
     1  S    1.328268
     2  N   -0.739172
     3  C    0.199970
     4  C   -0.500871
     5  S    1.125052
     6  C   -0.518056
     7  O   -0.561328
     8  O   -0.577942
     9  C   -0.294098
    10  C   -0.381055
    11  C    0.159302
    12  C   -0.194925
    13  C   -0.150001
    14  C   -0.150456
    15  C   -0.149708
    16  C   -0.196087
    17  O   -0.572788
    18  O   -0.565879
    19  H    0.411073
    20  H    0.230539
    21  H    0.244964
    22  H    0.233797
    23  H    0.253973
    24  H    0.178012
    25  H    0.173063
    26  H    0.168466
    27  H    0.169056
    28  H    0.145279
    29  H    0.149932
    30  H    0.148986
    31  H    0.149825
    32  H    0.145529
    33  N   -0.533004
    34  C   -0.326116
    35  H    0.200412
    36  H    0.189736
    37  H    0.172810
    38  C   -0.325238
    39  H    0.174903
    40  H    0.188756
    41  H    0.195021
 Sum of Mulliken charges =   0.00000

 Dipole moment (field-independent basis, Debye):
    X=             -3.4280    Y=             -7.0671    Z=              2.4105  Tot=              8.2162
 Quadrupole moment (field-independent basis, Debye-Ang):
   XX=           -141.1245   YY=           -165.2366   ZZ=           -127.4602
   XY=             -4.0990   XZ=             19.4246   YZ=            -12.9916

 Normal termination of Gaussian 09 at Mon Sep 21 21:05:40 2020.
