 Gaussian 09, Revision D.01,

 -----------------
 #p b3lyp/6-31G(d)
 -----------------

 ----------------
 SM40.n.1.pdb.xyz
 ----------------
 Symbolic Z-matrix:
 Charge =  0 Multiplicity = 1

 SCF Done:  E(RB3LYP) =  -1714.03956507     A.U. after   16 cycles
 Normal termination of Gaussian 09 at Fri Oct  2 06:18:36 2020.
 Gaussian 09:  AM64L-G09RevD.01 24-Apr-2013

 ----------------------------------------------------------------------
 #p b3lyp/6-31G(d) scrf=(iefpcm,read,solvent=n-Octanol) geom=allcheck g
 uess=read
 ----------------------------------------------------------------------

 Structure from the checkpoint file:  "SM40.n.1.pdb.xyz.mst.n.o.chk"
 ----------------
 SM40.n.1.pdb.xyz
 ----------------
 Charge =  0 Multiplicity = 1

                         Standard orientation:
 ---------------------------------------------------------------------
 Center     Atomic      Atomic             Coordinates (Angstroms)
 Number     Number       Type             X           Y           Z
 ---------------------------------------------------------------------
      1          6           0       -0.546139    3.503286    1.428297
      2          7           0        0.171376    3.208001    0.182815
      3          6           0        1.620882    3.400557    0.262314
      4         16           0       -0.338886    1.833630   -0.620773
      5          8           0       -1.796327    1.911029   -0.670100
      6          8           0        0.472993    1.726948   -1.833692
      7          7           0        0.071500    0.511486    0.372172
      8          6           0        0.912853   -0.574881   -0.165331
      9          6           0        1.473252   -1.418425    1.030140
     10         16           0        3.150617   -1.313404    0.319278
     11          8           0        4.161840   -0.774244    1.240721
     12          8           0        3.464987   -2.511062   -0.481268
     13          6           0        2.292643   -0.044695   -0.671742
     14          6           0        0.246812   -1.439474   -1.252961
     15          6           0       -0.851206   -2.429931   -0.816486
     16          6           0       -2.118867   -1.843779   -0.234196
     17          6           0       -3.079138   -1.243963   -1.058520
     18          6           0       -4.254942   -0.723813   -0.525737
     19          6           0       -4.495931   -0.790643    0.848614
     20          6           0       -3.550790   -1.386740    1.682227
     21          6           0       -2.374615   -1.912704    1.141502
     22          1           0       -0.336353    4.542371    1.690727
     23          1           0       -0.225853    2.855727    2.254974
     24          1           0       -1.615307    3.389484    1.261218
     25          1           0        1.800272    4.439697    0.545192
     26          1           0        2.061728    3.222640   -0.716732
     27          1           0        2.088721    2.748681    1.012170
     28          1           0       -0.784671    0.158193    0.800032
     29          1           0        1.103027   -2.435315    1.143892
     30          1           0        1.437968   -0.874308    1.974022
     31          1           0        2.472056   -0.101290   -1.742778
     32          1           0        2.553087    0.938599   -0.282607
     33          1           0        1.038869   -2.025218   -1.729870
     34          1           0       -0.130368   -0.750792   -2.012422
     35          1           0       -0.429496   -3.145016   -0.100210
     36          1           0       -1.106470   -3.016099   -1.706915
     37          1           0       -2.905069   -1.189813   -2.128654
     38          1           0       -4.987696   -0.266366   -1.184310
     39          1           0       -5.413059   -0.385715    1.262652
     40          1           0       -3.729591   -1.454541    2.750547
     41          1           0       -1.656448   -2.401074    1.794075
 ---------------------------------------------------------------------

 SCF Done:  E(RB3LYP) =  -1714.06627117     A.U. after   11 cycles

 The electronic state is 1-A.
 Alpha  occ. eigenvalues --  -89.14049 -89.09852 -19.16127 -19.15811 -19.15577
 Alpha  occ. eigenvalues --  -19.15328 -14.38230 -14.37942 -10.28049 -10.23567
 Alpha  occ. eigenvalues --  -10.23364 -10.22845 -10.22582 -10.20294 -10.20290
 Alpha  occ. eigenvalues --  -10.20091 -10.19531 -10.19466 -10.19332 -10.19222
 Alpha  occ. eigenvalues --  -10.19136  -8.16305  -8.12923  -6.12774  -6.12731
 Alpha  occ. eigenvalues --   -6.12704  -6.09358  -6.09274  -6.09191  -1.13695
 Alpha  occ. eigenvalues --   -1.10819  -1.02233  -1.00554  -0.95310  -0.94559
 Alpha  occ. eigenvalues --   -0.86248  -0.85904  -0.79741  -0.74858  -0.74407
 Alpha  occ. eigenvalues --   -0.73482  -0.72993  -0.71789  -0.67588  -0.63604
 Alpha  occ. eigenvalues --   -0.60965  -0.60504  -0.58786  -0.57284  -0.55037
 Alpha  occ. eigenvalues --   -0.53281  -0.52060  -0.51731  -0.50839  -0.49211
 Alpha  occ. eigenvalues --   -0.48855  -0.47215  -0.46875  -0.46816  -0.45912
 Alpha  occ. eigenvalues --   -0.45463  -0.44692  -0.44412  -0.43357  -0.42476
 Alpha  occ. eigenvalues --   -0.42339  -0.41892  -0.41514  -0.40029  -0.39580
 Alpha  occ. eigenvalues --   -0.39419  -0.38513  -0.36707  -0.36219  -0.35551
 Alpha  occ. eigenvalues --   -0.34380  -0.34173  -0.33467  -0.33370  -0.33126
 Alpha  occ. eigenvalues --   -0.32531  -0.31983  -0.30913  -0.29675  -0.28780
 Alpha  occ. eigenvalues --   -0.26421  -0.25495  -0.24670
 Alpha virt. eigenvalues --   -0.00963  -0.00733   0.02647   0.04105   0.04520
 Alpha virt. eigenvalues --    0.05461   0.06496   0.07264   0.08020   0.08892
 Alpha virt. eigenvalues --    0.09060   0.10153   0.10314   0.10919   0.11121

 Mulliken charges:
               1
     1  C   -0.338818
     2  N   -0.492260
     3  C   -0.343995
     4  S    1.358941
     5  O   -0.541472
     6  O   -0.576465
     7  N   -0.749663
     8  C    0.173001
     9  C   -0.502966
    10  S    1.101319
    11  O   -0.529444
    12  O   -0.547446
    13  C   -0.482671
    14  C   -0.284752
    15  C   -0.372737
    16  C    0.157443
    17  C   -0.166958
    18  C   -0.124331
    19  C   -0.137609
    20  C   -0.130574
    21  C   -0.228095
    22  H    0.184506
    23  H    0.164828
    24  H    0.202467
    25  H    0.188966
    26  H    0.201522
    27  H    0.164845
    28  H    0.371590
    29  H    0.222628
    30  H    0.224684
    31  H    0.231692
    32  H    0.214469
    33  H    0.170969
    34  H    0.185085
    35  H    0.155766
    36  H    0.170897
    37  H    0.139039
    38  H    0.143351
    39  H    0.142419
    40  H    0.143935
    41  H    0.135895
 Sum of Mulliken charges =   0.00000

 Dipole moment (field-independent basis, Debye):
    X=             -3.9982    Y=              1.8696    Z=              3.2121  Tot=              5.4589
 Quadrupole moment (field-independent basis, Debye-Ang):
   XX=           -161.5723   YY=           -135.5684   ZZ=           -134.9947
   XY=             16.9972   XZ=             -7.1240   YZ=              7.7535

 Normal termination of Gaussian 09 at Fri Oct  2 06:23:36 2020.
