 Gaussian 09, Revision D.01,

 -----------------
 #p b3lyp/6-31G(d)
 -----------------

 -----------------
 SM40.n.24.pdb.xyz
 -----------------
 Symbolic Z-matrix:
 Charge =  0 Multiplicity = 1

 SCF Done:  E(RB3LYP) =  -1714.04140661     A.U. after   15 cycles
 Normal termination of Gaussian 09 at Fri Oct  2 02:30:21 2020.
 Gaussian 09:  AM64L-G09RevD.01 24-Apr-2013

 ----------------------------------------------------------------------
 #p b3lyp/6-31G(d) scrf=(iefpcm,read,solvent=Water) geom=allcheck guess
 =read
 ----------------------------------------------------------------------

 Structure from the checkpoint file:  "SM40.n.24.pdb.xyz.mst.n.w.chk"
 -----------------
 SM40.n.24.pdb.xyz
 -----------------
 Charge =  0 Multiplicity = 1

                         Standard orientation:
 ---------------------------------------------------------------------
 Center     Atomic      Atomic             Coordinates (Angstroms)
 Number     Number       Type             X           Y           Z
 ---------------------------------------------------------------------
      1          6           0        0.670530    3.652259   -0.911360
      2          7           0        0.145504    2.735555    0.116717
      3          6           0        0.337283    3.222253    1.493119
      4         16           0       -1.413259    2.194418   -0.195233
      5          8           0       -2.436870    3.103496    0.345460
      6          8           0       -1.452949    1.850687   -1.622064
      7          7           0       -1.495674    0.821906    0.771454
      8          6           0       -1.212434   -0.505014    0.194755
      9          6           0       -2.168092   -0.932862   -0.981456
     10         16           0       -2.505570   -2.509412   -0.135004
     11          8           0       -3.934555   -2.777292    0.115877
     12          8           0       -1.665285   -3.608820   -0.655452
     13          6           0       -1.665232   -1.605316    1.214281
     14          6           0        0.259834   -0.661211   -0.217072
     15          6           0        1.278897   -0.521598    0.925232
     16          6           0        2.696278   -0.741580    0.442554
     17          6           0        3.448964    0.313855   -0.090368
     18          6           0        4.748006    0.104628   -0.558504
     19          6           0        5.316506   -1.171024   -0.499454
     20          6           0        4.577782   -2.230411    0.030090
     21          6           0        3.279679   -2.015238    0.496041
     22          1           0        1.738554    3.769649   -0.720383
     23          1           0        0.194057    4.640049   -0.876087
     24          1           0        0.530439    3.211224   -1.895429
     25          1           0        1.410478    3.333784    1.652522
     26          1           0       -0.049124    2.482776    2.193825
     27          1           0       -0.155421    4.185678    1.664763
     28          1           0       -2.388392    0.858942    1.265670
     29          1           0       -1.717657   -1.045910   -1.966584
     30          1           0       -3.083930   -0.347331   -1.038312
     31          1           0       -0.876989   -2.175009    1.703877
     32          1           0       -2.400966   -1.260278    1.944074
     33          1           0        0.475366    0.069584   -1.001154
     34          1           0        0.364980   -1.648593   -0.676427
     35          1           0        1.052174   -1.249572    1.711265
     36          1           0        1.186626    0.471776    1.369811
     37          1           0        3.013910    1.308489   -0.134937
     38          1           0        5.316060    0.935448   -0.964541
     39          1           0        6.327407   -1.334818   -0.859809
     40          1           0        5.012282   -3.223255    0.084783
     41          1           0        2.711874   -2.841970    0.911939
 ---------------------------------------------------------------------

 SCF Done:  E(RB3LYP) =  -1714.06737645     A.U. after   11 cycles

 The electronic state is 1-A.
 Alpha  occ. eigenvalues --  -89.14276 -89.10024 -19.16218 -19.15999 -19.15855
 Alpha  occ. eigenvalues --  -19.15635 -14.38259 -14.38164 -10.27934 -10.23553
 Alpha  occ. eigenvalues --  -10.22998 -10.22142 -10.22085 -10.19987 -10.19838
 Alpha  occ. eigenvalues --  -10.19121 -10.19078 -10.19046 -10.18919 -10.18893
 Alpha  occ. eigenvalues --  -10.18869  -8.16537  -8.13109  -6.13022  -6.12963
 Alpha  occ. eigenvalues --   -6.12916  -6.09557  -6.09458  -6.09360  -1.13597
 Alpha  occ. eigenvalues --   -1.10905  -1.01826  -1.00653  -0.95585  -0.94347
 Alpha  occ. eigenvalues --   -0.86118  -0.85545  -0.79429  -0.74398  -0.74125
 Alpha  occ. eigenvalues --   -0.72913  -0.72643  -0.71682  -0.67276  -0.63106
 Alpha  occ. eigenvalues --   -0.60508  -0.59589  -0.58246  -0.57374  -0.54451
 Alpha  occ. eigenvalues --   -0.53490  -0.51982  -0.51445  -0.50478  -0.49192
 Alpha  occ. eigenvalues --   -0.48653  -0.47175  -0.46766  -0.45993  -0.45642
 Alpha  occ. eigenvalues --   -0.44960  -0.44832  -0.44549  -0.42404  -0.42103
 Alpha  occ. eigenvalues --   -0.41870  -0.41563  -0.40984  -0.40490  -0.39005
 Alpha  occ. eigenvalues --   -0.38630  -0.37102  -0.36971  -0.35766  -0.35489
 Alpha  occ. eigenvalues --   -0.35168  -0.33868  -0.33663  -0.33339  -0.32839
 Alpha  occ. eigenvalues --   -0.32535  -0.31889  -0.31181  -0.30399  -0.28484
 Alpha  occ. eigenvalues --   -0.26243  -0.25249  -0.24448
 Alpha virt. eigenvalues --   -0.00354  -0.00324   0.03160   0.03838   0.04560
 Alpha virt. eigenvalues --    0.05293   0.05921   0.06265   0.08082   0.08860
 Alpha virt. eigenvalues --    0.09254   0.10394   0.10496   0.11922   0.12273

 Mulliken charges:
               1
     1  C   -0.330978
     2  N   -0.522798
     3  C   -0.332758
     4  S    1.347497
     5  O   -0.568252
     6  O   -0.585322
     7  N   -0.731770
     8  C    0.167404
     9  C   -0.477246
    10  S    1.107888
    11  O   -0.555021
    12  O   -0.570367
    13  C   -0.502507
    14  C   -0.285855
    15  C   -0.362231
    16  C    0.156023
    17  C   -0.199318
    18  C   -0.150244
    19  C   -0.151966
    20  C   -0.148792
    21  C   -0.198349
    22  H    0.188950
    23  H    0.171986
    24  H    0.199260
    25  H    0.188479
    26  H    0.195308
    27  H    0.174846
    28  H    0.409222
    29  H    0.236148
    30  H    0.232727
    31  H    0.238484
    32  H    0.234762
    33  H    0.184003
    34  H    0.169833
    35  H    0.155838
    36  H    0.178976
    37  H    0.145856
    38  H    0.149268
    39  H    0.148244
    40  H    0.149221
    41  H    0.143553
 Sum of Mulliken charges =   0.00000

 Dipole moment (field-independent basis, Debye):
    X=              5.4460    Y=              4.7189    Z=              3.9353  Tot=              8.2106
 Quadrupole moment (field-independent basis, Debye-Ang):
   XX=           -152.6539   YY=           -155.0725   ZZ=           -134.6610
   XY=             -2.6331   XZ=             -7.8873   YZ=             -3.0362

 Normal termination of Gaussian 09 at Fri Oct  2 02:35:30 2020.
