 Gaussian 09, Revision D.01,

 -----------------
 #p b3lyp/6-31G(d)
 -----------------

 -----------------
 SM40.n.26.pdb.xyz
 -----------------
 Symbolic Z-matrix:
 Charge =  0 Multiplicity = 1

 SCF Done:  E(RB3LYP) =  -1714.03270345     A.U. after   15 cycles
 Normal termination of Gaussian 09 at Fri Oct  2 01:35:10 2020.
 Gaussian 09:  AM64L-G09RevD.01 24-Apr-2013

 ----------------------------------------------------------------------
 #p b3lyp/6-31G(d) scrf=(iefpcm,read,solvent=Water) geom=allcheck guess
 =read
 ----------------------------------------------------------------------

 Structure from the checkpoint file:  "SM40.n.26.pdb.xyz.mst.n.w.chk"
 -----------------
 SM40.n.26.pdb.xyz
 -----------------
 Charge =  0 Multiplicity = 1

                         Standard orientation:
 ---------------------------------------------------------------------
 Center     Atomic      Atomic             Coordinates (Angstroms)
 Number     Number       Type             X           Y           Z
 ---------------------------------------------------------------------
      1          6           0        4.084845   -0.781949    1.548807
      2          7           0        3.597251   -0.076377    0.353783
      3          6           0        4.646656    0.691403   -0.340629
      4         16           0        2.647627   -1.034166   -0.667737
      5          8           0        2.381271   -0.209094   -1.850322
      6          8           0        3.225667   -2.374073   -0.836587
      7          7           0        1.219308   -1.286530    0.132825
      8          6           0        0.193766   -0.283529    0.486777
      9          6           0       -0.397827    0.423758   -0.781201
     10         16           0       -0.004742    2.063014   -0.080737
     11          8           0        1.001822    2.810010   -0.861507
     12          8           0       -1.203194    2.795901    0.382549
     13          6           0        0.722384    1.006092    1.217237
     14          6           0       -0.830340   -1.074602    1.331174
     15          6           0       -2.153162   -0.371656    1.706911
     16          6           0       -3.276017   -0.500167    0.691908
     17          6           0       -3.657280   -1.755382    0.194283
     18          6           0       -4.718794   -1.881586   -0.700035
     19          6           0       -5.425058   -0.749702   -1.116323
     20          6           0       -5.058533    0.504935   -0.628050
     21          6           0       -3.994091    0.627171    0.267565
     22          1           0        4.520162   -0.032915    2.212587
     23          1           0        4.841600   -1.536296    1.309566
     24          1           0        3.251811   -1.256503    2.069417
     25          1           0        5.052807    1.402229    0.381636
     26          1           0        4.203879    1.238626   -1.169731
     27          1           0        5.460898    0.054420   -0.706912
     28          1           0        1.301534   -2.062064    0.788564
     29          1           0       -1.464579    0.284373   -0.949034
     30          1           0        0.178765    0.245587   -1.686275
     31          1           0        0.303896    1.202093    2.205350
     32          1           0        1.809974    1.091523    1.219974
     33          1           0       -0.314744   -1.364729    2.251835
     34          1           0       -1.058579   -1.998568    0.794229
     35          1           0       -1.989283    0.685138    1.935759
     36          1           0       -2.489548   -0.828156    2.645511
     37          1           0       -3.120456   -2.643847    0.514179
     38          1           0       -4.996502   -2.863859   -1.069974
     39          1           0       -6.251352   -0.846049   -1.812809
     40          1           0       -5.598770    1.391378   -0.945650
     41          1           0       -3.707428    1.605726    0.637523
 ---------------------------------------------------------------------

 SCF Done:  E(RB3LYP) =  -1714.05967098     A.U. after   11 cycles

 The electronic state is 1-A.
 Alpha  occ. eigenvalues --  -89.14485 -89.09607 -19.16101 -19.16009 -19.15396
 Alpha  occ. eigenvalues --  -19.15320 -14.38310 -14.38095 -10.28051 -10.22502
 Alpha  occ. eigenvalues --  -10.22377 -10.22370 -10.22011 -10.20578 -10.20007
 Alpha  occ. eigenvalues --  -10.19738 -10.19133 -10.19067 -10.18955 -10.18947
 Alpha  occ. eigenvalues --  -10.18819  -8.16673  -8.12695  -6.13152  -6.13096
 Alpha  occ. eigenvalues --   -6.13083  -6.09146  -6.09043  -6.08944  -1.13686
 Alpha  occ. eigenvalues --   -1.10474  -1.01925  -1.00195  -0.95527  -0.94099
 Alpha  occ. eigenvalues --   -0.86135  -0.85315  -0.79477  -0.74849  -0.74431
 Alpha  occ. eigenvalues --   -0.72762  -0.72193  -0.71197  -0.67719  -0.62791
 Alpha  occ. eigenvalues --   -0.60917  -0.60424  -0.57937  -0.57083  -0.55058
 Alpha  occ. eigenvalues --   -0.53152  -0.51888  -0.51242  -0.49914  -0.49874
 Alpha  occ. eigenvalues --   -0.48650  -0.47283  -0.46493  -0.46042  -0.45500
 Alpha  occ. eigenvalues --   -0.44944  -0.44709  -0.43873  -0.42827  -0.42302
 Alpha  occ. eigenvalues --   -0.41743  -0.41224  -0.40986  -0.40500  -0.39827
 Alpha  occ. eigenvalues --   -0.38912  -0.36858  -0.36373  -0.36174  -0.35472
 Alpha  occ. eigenvalues --   -0.33771  -0.33671  -0.33628  -0.33396  -0.32752
 Alpha  occ. eigenvalues --   -0.32392  -0.32039  -0.30718  -0.30531  -0.28274
 Alpha  occ. eigenvalues --   -0.26090  -0.25313  -0.24490
 Alpha virt. eigenvalues --   -0.00657  -0.00366   0.03232   0.04001   0.04975
 Alpha virt. eigenvalues --    0.05696   0.05935   0.06080   0.07552   0.08976
 Alpha virt. eigenvalues --    0.09728   0.10192   0.11371   0.11613   0.12472

 Mulliken charges:
               1
     1  C   -0.328503
     2  N   -0.533395
     3  C   -0.323288
     4  S    1.318329
     5  O   -0.578586
     6  O   -0.560303
     7  N   -0.739465
     8  C    0.215968
     9  C   -0.502014
    10  S    1.117108
    11  O   -0.563548
    12  O   -0.572075
    13  C   -0.515041
    14  C   -0.324417
    15  C   -0.369887
    16  C    0.145393
    17  C   -0.194952
    18  C   -0.148545
    19  C   -0.151400
    20  C   -0.146279
    21  C   -0.204258
    22  H    0.193300
    23  H    0.179969
    24  H    0.179914
    25  H    0.187453
    26  H    0.199673
    27  H    0.170589
    28  H    0.416734
    29  H    0.233014
    30  H    0.248800
    31  H    0.231994
    32  H    0.255309
    33  H    0.175512
    34  H    0.184959
    35  H    0.170288
    36  H    0.181429
    37  H    0.149090
    38  H    0.149996
    39  H    0.149023
    40  H    0.149648
    41  H    0.152463
 Sum of Mulliken charges =   0.00000

 Dipole moment (field-independent basis, Debye):
    X=              0.8298    Y=             -4.9105    Z=              7.6689  Tot=              9.1441
 Quadrupole moment (field-independent basis, Debye-Ang):
   XX=           -124.8598   YY=           -157.7593   ZZ=           -134.9522
   XY=             10.7780   XZ=             21.0883   YZ=             -3.7292

 Normal termination of Gaussian 09 at Fri Oct  2 01:40:14 2020.
