 Gaussian 09, Revision D.01,

 -----------------
 #p b3lyp/6-31G(d)
 -----------------

 -----------------
 SM40.n.23.pdb.xyz
 -----------------
 Symbolic Z-matrix:
 Charge =  0 Multiplicity = 1

 SCF Done:  E(RB3LYP) =  -1714.04185824     A.U. after   15 cycles
 Normal termination of Gaussian 09 at Fri Oct  2 06:17:56 2020.
 Gaussian 09:  AM64L-G09RevD.01 24-Apr-2013

 ----------------------------------------------------------------------
 #p b3lyp/6-31G(d) scrf=(iefpcm,read,solvent=n-Octanol) geom=allcheck g
 uess=read
 ----------------------------------------------------------------------

 Structure from the checkpoint file:  "SM40.n.23.pdb.xyz.mst.n.o.chk"
 -----------------
 SM40.n.23.pdb.xyz
 -----------------
 Charge =  0 Multiplicity = 1

                         Standard orientation:
 ---------------------------------------------------------------------
 Center     Atomic      Atomic             Coordinates (Angstroms)
 Number     Number       Type             X           Y           Z
 ---------------------------------------------------------------------
      1          6           0        2.043651    3.622966    0.428009
      2          7           0        1.093971    2.541527    0.742107
      3          6           0        0.114398    2.899299    1.778493
      4         16           0        0.416363    1.816088   -0.620394
      5          8           0       -0.777484    2.514999   -1.107313
      6          8           0        1.538875    1.578481   -1.536691
      7          7           0       -0.166787    0.398425    0.046650
      8          6           0        0.632762   -0.816688    0.233248
      9          6           0        1.946119   -0.565212    1.040803
     10         16           0        2.836017   -1.705786   -0.070242
     11          8           0        4.063873   -1.154318   -0.659697
     12          8           0        2.854420   -3.070939    0.491552
     13          6           0        1.317770   -1.427221   -1.045074
     14          6           0       -0.222248   -1.864487    0.967278
     15          6           0       -1.441999   -2.434339    0.222234
     16          6           0       -2.627955   -1.502320    0.066845
     17          6           0       -3.066870   -1.104987   -1.204305
     18          6           0       -4.163801   -0.253478   -1.351536
     19          6           0       -4.844542    0.209612   -0.227277
     20          6           0       -4.422731   -0.183799    1.044909
     21          6           0       -3.325392   -1.031022    1.189407
     22          1           0        2.590720    3.849231    1.344034
     23          1           0        1.541360    4.533638    0.080654
     24          1           0        2.743912    3.277756   -0.331076
     25          1           0        0.670673    3.135602    2.687847
     26          1           0       -0.531693    2.043438    1.969827
     27          1           0       -0.494723    3.764788    1.492904
     28          1           0       -1.110667    0.232471   -0.298756
     29          1           0        1.933092   -0.870985    2.088060
     30          1           0        2.328953    0.448936    0.932866
     31          1           0        0.881659   -2.337166   -1.457108
     32          1           0        1.511711   -0.680785   -1.814592
     33          1           0       -0.534907   -1.435307    1.924258
     34          1           0        0.453209   -2.695046    1.194597
     35          1           0       -1.760045   -3.323651    0.779230
     36          1           0       -1.136112   -2.795261   -0.765209
     37          1           0       -2.546053   -1.473365   -2.084293
     38          1           0       -4.486148    0.042432   -2.344290
     39          1           0       -5.696977    0.870638   -0.338857
     40          1           0       -4.949549    0.167469    1.925347
     41          1           0       -3.009216   -1.335047    2.182421
 ---------------------------------------------------------------------

 SCF Done:  E(RB3LYP) =  -1714.06968845     A.U. after   11 cycles

 The electronic state is 1-A.
 Alpha  occ. eigenvalues --  -89.14195 -89.09579 -19.15963 -19.15739 -19.15278
 Alpha  occ. eigenvalues --  -19.14940 -14.38292 -14.38219 -10.28093 -10.22973
 Alpha  occ. eigenvalues --  -10.22772 -10.22507 -10.22478 -10.20839 -10.20719
 Alpha  occ. eigenvalues --  -10.20438 -10.19780 -10.19744 -10.19712 -10.19651
 Alpha  occ. eigenvalues --  -10.19533  -8.16429  -8.12645  -6.12919  -6.12854
 Alpha  occ. eigenvalues --   -6.12812  -6.09081  -6.08996  -6.08915  -1.13492
 Alpha  occ. eigenvalues --   -1.10496  -1.01696  -1.00225  -0.95766  -0.94382
 Alpha  occ. eigenvalues --   -0.86564  -0.86066  -0.80168  -0.75212  -0.74881
 Alpha  occ. eigenvalues --   -0.73159  -0.72568  -0.71759  -0.67805  -0.63351
 Alpha  occ. eigenvalues --   -0.61259  -0.60823  -0.58775  -0.57391  -0.54652
 Alpha  occ. eigenvalues --   -0.53628  -0.51985  -0.51800  -0.50204  -0.49413
 Alpha  occ. eigenvalues --   -0.48834  -0.47267  -0.46966  -0.46300  -0.45688
 Alpha  occ. eigenvalues --   -0.45410  -0.44566  -0.44142  -0.43945  -0.42738
 Alpha  occ. eigenvalues --   -0.42317  -0.42150  -0.41383  -0.40320  -0.39463
 Alpha  occ. eigenvalues --   -0.39151  -0.38788  -0.36620  -0.36473  -0.35480
 Alpha  occ. eigenvalues --   -0.34568  -0.34375  -0.34204  -0.33296  -0.32762
 Alpha  occ. eigenvalues --   -0.32242  -0.31681  -0.30724  -0.30046  -0.27887
 Alpha  occ. eigenvalues --   -0.26363  -0.25881  -0.25157
 Alpha virt. eigenvalues --   -0.01367  -0.00999   0.03274   0.04817   0.05430
 Alpha virt. eigenvalues --    0.05859   0.06089   0.06955   0.07853   0.08585
 Alpha virt. eigenvalues --    0.09076   0.09647   0.10389   0.10953   0.12316

 Mulliken charges:
               1
     1  C   -0.331669
     2  N   -0.528823
     3  C   -0.326329
     4  S    1.337094
     5  O   -0.540113
     6  O   -0.567552
     7  N   -0.751276
     8  C    0.190067
     9  C   -0.501436
    10  S    1.105350
    11  O   -0.525960
    12  O   -0.556957
    13  C   -0.507823
    14  C   -0.301839
    15  C   -0.366469
    16  C    0.125404
    17  C   -0.211581
    18  C   -0.122596
    19  C   -0.136244
    20  C   -0.133359
    21  C   -0.176200
    22  H    0.183548
    23  H    0.169104
    24  H    0.202991
    25  H    0.181212
    26  H    0.191279
    27  H    0.172648
    28  H    0.386243
    29  H    0.219235
    30  H    0.241835
    31  H    0.217223
    32  H    0.245542
    33  H    0.169552
    34  H    0.185729
    35  H    0.177654
    36  H    0.158231
    37  H    0.143344
    38  H    0.148322
    39  H    0.146088
    40  H    0.146223
    41  H    0.142310
 Sum of Mulliken charges =   0.00000

 Dipole moment (field-independent basis, Debye):
    X=             -5.9834    Y=              2.0691    Z=              4.4684  Tot=              7.7491
 Quadrupole moment (field-independent basis, Debye-Ang):
   XX=           -156.9645   YY=           -140.3352   ZZ=           -131.4724
   XY=             17.5338   XZ=              5.1788   YZ=             12.6547

 Normal termination of Gaussian 09 at Fri Oct  2 06:22:59 2020.
