 Gaussian 09, Revision D.01,

 -----------------
 #p b3lyp/6-31G(d)
 -----------------

 -----------------
 SM40.n.21.pdb.xyz
 -----------------
 Symbolic Z-matrix:
 Charge =  0 Multiplicity = 1

 SCF Done:  E(RB3LYP) =  -1714.03914004     A.U. after   16 cycles
 Normal termination of Gaussian 09 at Fri Oct  2 06:18:06 2020.
 Gaussian 09:  AM64L-G09RevD.01 24-Apr-2013

 ----------------------------------------------------------------------
 #p b3lyp/6-31G(d) scrf=(iefpcm,read,solvent=n-Octanol) geom=allcheck g
 uess=read
 ----------------------------------------------------------------------

 Structure from the checkpoint file:  "SM40.n.21.pdb.xyz.mst.n.o.chk"
 -----------------
 SM40.n.21.pdb.xyz
 -----------------
 Charge =  0 Multiplicity = 1

                         Standard orientation:
 ---------------------------------------------------------------------
 Center     Atomic      Atomic             Coordinates (Angstroms)
 Number     Number       Type             X           Y           Z
 ---------------------------------------------------------------------
      1          6           0        4.156387   -1.234266    1.323444
      2          7           0        3.760353   -0.773910   -0.014838
      3          6           0        4.663941   -1.191044   -1.096800
      4         16           0        2.127370   -0.919205   -0.349339
      5          8           0        1.955126   -0.636175   -1.780340
      6          8           0        1.523775   -2.145449    0.186289
      7          7           0        1.611434    0.366716    0.630346
      8          6           0        0.155387    0.640641    0.780054
      9          6           0       -0.542103    0.935773   -0.598256
     10         16           0       -0.209431    2.716557   -0.364640
     11          8           0        1.091805    3.091131   -0.954174
     12          8           0       -1.368353    3.602949   -0.541757
     13          6           0        0.046903    2.095099    1.338308
     14          6           0       -0.478559   -0.424978    1.694786
     15          6           0       -2.002292   -0.358301    1.911717
     16          6           0       -2.864725   -0.880045    0.775169
     17          6           0       -2.570156   -2.089600    0.131155
     18          6           0       -3.392794   -2.579690   -0.883265
     19          6           0       -4.530062   -1.868323   -1.271049
     20          6           0       -4.836059   -0.664383   -0.638388
     21          6           0       -4.009358   -0.176408    0.375895
     22          1           0        5.149870   -0.832098    1.529643
     23          1           0        4.186880   -2.327518    1.394108
     24          1           0        3.456997   -0.839239    2.058857
     25          1           0        5.648560   -0.775388   -0.872670
     26          1           0        4.310634   -0.784790   -2.041478
     27          1           0        4.749685   -2.281582   -1.173642
     28          1           0        2.117172    1.191121    0.299651
     29          1           0       -1.618056    0.763921   -0.586698
     30          1           0       -0.073928    0.497880   -1.478139
     31          1           0       -0.855167    2.256131    1.929969
     32          1           0        0.923936    2.490020    1.851779
     33          1           0        0.024523   -0.329720    2.661789
     34          1           0       -0.206556   -1.406158    1.308639
     35          1           0       -2.325218    0.657695    2.170092
     36          1           0       -2.209235   -0.959621    2.805964
     37          1           0       -1.686255   -2.649997    0.418928
     38          1           0       -3.144057   -3.517706   -1.370047
     39          1           0       -5.169063   -2.248039   -2.061316
     40          1           0       -5.715009   -0.100651   -0.932970
     41          1           0       -4.253128    0.761959    0.865873
 ---------------------------------------------------------------------

 SCF Done:  E(RB3LYP) =  -1714.06541574     A.U. after   11 cycles

 The electronic state is 1-A.
 Alpha  occ. eigenvalues --  -89.14034 -89.09929 -19.15809 -19.15741 -19.15736
 Alpha  occ. eigenvalues --  -19.15443 -14.38304 -14.38236 -10.28181 -10.23827
 Alpha  occ. eigenvalues --  -10.22816 -10.22536 -10.22507 -10.20227 -10.20203
 Alpha  occ. eigenvalues --  -10.20070 -10.19306 -10.19297 -10.19184 -10.19098
 Alpha  occ. eigenvalues --  -10.19070  -8.16302  -8.13005  -6.12771  -6.12736
 Alpha  occ. eigenvalues --   -6.12688  -6.09446  -6.09354  -6.09267  -1.13304
 Alpha  occ. eigenvalues --   -1.10932  -1.01407  -1.00746  -0.95916  -0.94408
 Alpha  occ. eigenvalues --   -0.86275  -0.85398  -0.79744  -0.74866  -0.74531
 Alpha  occ. eigenvalues --   -0.73180  -0.72718  -0.71861  -0.67443  -0.62741
 Alpha  occ. eigenvalues --   -0.60919  -0.60359  -0.58768  -0.56947  -0.55156
 Alpha  occ. eigenvalues --   -0.52666  -0.51866  -0.51340  -0.50464  -0.49609
 Alpha  occ. eigenvalues --   -0.48820  -0.47719  -0.46728  -0.46537  -0.45722
 Alpha  occ. eigenvalues --   -0.45163  -0.44718  -0.44166  -0.43423  -0.42410
 Alpha  occ. eigenvalues --   -0.41930  -0.41758  -0.41338  -0.40551  -0.39305
 Alpha  occ. eigenvalues --   -0.39182  -0.37604  -0.37066  -0.36227  -0.35722
 Alpha  occ. eigenvalues --   -0.35161  -0.34194  -0.33810  -0.33008  -0.32689
 Alpha  occ. eigenvalues --   -0.32294  -0.31373  -0.31130  -0.29611  -0.28194
 Alpha  occ. eigenvalues --   -0.26476  -0.25411  -0.24590
 Alpha virt. eigenvalues --   -0.00761  -0.00583   0.03076   0.03908   0.04565
 Alpha virt. eigenvalues --    0.05743   0.05956   0.06849   0.07725   0.08500
 Alpha virt. eigenvalues --    0.09695   0.09991   0.10534   0.10972   0.11739

 Mulliken charges:
               1
     1  C   -0.320072
     2  N   -0.527928
     3  C   -0.324876
     4  S    1.302220
     5  O   -0.544301
     6  O   -0.542276
     7  N   -0.703112
     8  C    0.141202
     9  C   -0.504711
    10  S    1.096726
    11  O   -0.556579
    12  O   -0.522474
    13  C   -0.502014
    14  C   -0.290902
    15  C   -0.370712
    16  C    0.149010
    17  C   -0.188727
    18  C   -0.137191
    19  C   -0.140227
    20  C   -0.131927
    21  C   -0.201048
    22  H    0.181549
    23  H    0.172038
    24  H    0.193882
    25  H    0.181719
    26  H    0.204560
    27  H    0.167307
    28  H    0.374459
    29  H    0.224111
    30  H    0.249259
    31  H    0.224733
    32  H    0.228155
    33  H    0.162768
    34  H    0.213225
    35  H    0.149564
    36  H    0.177871
    37  H    0.147138
    38  H    0.143827
    39  H    0.141983
    40  H    0.143485
    41  H    0.138286
 Sum of Mulliken charges =   0.00000

 Dipole moment (field-independent basis, Debye):
    X=              2.1598    Y=             -2.9553    Z=              5.2220  Tot=              6.3771
 Quadrupole moment (field-independent basis, Debye-Ang):
   XX=           -113.8274   YY=           -158.9466   ZZ=           -134.9179
   XY=             -1.7591   XZ=              6.1129   YZ=             11.7435

 Normal termination of Gaussian 09 at Fri Oct  2 06:22:57 2020.
