 Gaussian 09, Revision D.01,

 -----------------
 #p b3lyp/6-31G(d)
 -----------------

 ----------------
 SM40.n.9.pdb.xyz
 ----------------
 Symbolic Z-matrix:
 Charge =  0 Multiplicity = 1

 SCF Done:  E(RB3LYP) =  -1714.03864419     A.U. after   15 cycles
 Normal termination of Gaussian 09 at Fri Oct  2 06:28:10 2020.
 Gaussian 09:  AM64L-G09RevD.01 24-Apr-2013

 ----------------------------------------------------------------------
 #p b3lyp/6-31G(d) scrf=(iefpcm,read,solvent=n-Octanol) geom=allcheck g
 uess=read
 ----------------------------------------------------------------------

 Structure from the checkpoint file:  "SM40.n.9.pdb.xyz.mst.n.o.chk"
 ----------------
 SM40.n.9.pdb.xyz
 ----------------
 Charge =  0 Multiplicity = 1

                         Standard orientation:
 ---------------------------------------------------------------------
 Center     Atomic      Atomic             Coordinates (Angstroms)
 Number     Number       Type             X           Y           Z
 ---------------------------------------------------------------------
      1          6           0       -3.367236   -2.129155    0.780238
      2          7           0       -1.901619   -2.105822    0.869842
      3          6           0       -1.358469   -3.092886    1.818217
      4         16           0       -1.126905   -2.058447   -0.632316
      5          8           0        0.281511   -2.340136   -0.363961
      6          8           0       -1.853060   -2.828631   -1.645594
      7          7           0       -1.284016   -0.474981   -1.143361
      8          6           0       -0.908249    0.699612   -0.351312
      9          6           0       -1.866017    1.053148    0.844765
     10         16           0       -1.958176    2.780197    0.262929
     11          8           0       -3.327119    3.252090    0.009842
     12          8           0       -1.009009    3.649276    0.981008
     13          6           0       -1.170398    1.995123   -1.192468
     14          6           0        0.542831    0.619246    0.134451
     15          6           0        1.587821    0.487462   -0.981660
     16          6           0        2.981401    0.284976   -0.427299
     17          6           0        3.388506   -0.980889    0.021572
     18          6           0        4.662835   -1.172959    0.552171
     19          6           0        5.554676   -0.101618    0.645211
     20          6           0        5.161207    1.161489    0.203371
     21          6           0        3.884383    1.350030   -0.328751
     22          1           0       -3.762149   -1.953695    1.783194
     23          1           0       -3.749941   -3.083680    0.401046
     24          1           0       -3.715897   -1.325518    0.130681
     25          1           0       -1.768450   -2.854716    2.802318
     26          1           0       -0.274797   -3.005886    1.850944
     27          1           0       -1.636541   -4.121866    1.558328
     28          1           0       -2.109414   -0.376503   -1.729739
     29          1           0       -1.457354    0.938380    1.847757
     30          1           0       -2.851853    0.593903    0.770374
     31          1           0       -0.289202    2.519344   -1.560835
     32          1           0       -1.906363    1.873525   -1.991292
     33          1           0        0.629961   -0.235625    0.807924
     34          1           0        0.739955    1.514773    0.730554
     35          1           0        1.573436    1.383007   -1.613148
     36          1           0        1.306906   -0.362344   -1.608805
     37          1           0        2.691913   -1.811545   -0.051511
     38          1           0        4.962987   -2.159568    0.889636
     39          1           0        6.547627   -0.251966    1.056214
     40          1           0        5.847228    2.000188    0.267259
     41          1           0        3.584383    2.335156   -0.677476
 ---------------------------------------------------------------------

 SCF Done:  E(RB3LYP) =  -1714.06837326     A.U. after   11 cycles

 The electronic state is 1-A.
 Alpha  occ. eigenvalues --  -89.14566 -89.10126 -19.16203 -19.16043 -19.15805
 Alpha  occ. eigenvalues --  -19.15571 -14.38889 -14.38602 -10.28470 -10.24081
 Alpha  occ. eigenvalues --  -10.23583 -10.23348 -10.22712 -10.20094 -10.19468
 Alpha  occ. eigenvalues --  -10.19035 -10.18790 -10.18722 -10.18646 -10.18629
 Alpha  occ. eigenvalues --  -10.18282  -8.16769  -8.13197  -6.13242  -6.13196
 Alpha  occ. eigenvalues --   -6.13177  -6.09630  -6.09548  -6.09468  -1.13931
 Alpha  occ. eigenvalues --   -1.11074  -1.02213  -1.00824  -0.96162  -0.94679
 Alpha  occ. eigenvalues --   -0.86487  -0.85311  -0.79446  -0.74208  -0.74038
 Alpha  occ. eigenvalues --   -0.73674  -0.73231  -0.71841  -0.67620  -0.63865
 Alpha  occ. eigenvalues --   -0.60348  -0.59965  -0.58591  -0.57598  -0.55678
 Alpha  occ. eigenvalues --   -0.54060  -0.52328  -0.51161  -0.50510  -0.49433
 Alpha  occ. eigenvalues --   -0.49079  -0.48067  -0.46770  -0.46241  -0.46061
 Alpha  occ. eigenvalues --   -0.45065  -0.44938  -0.44396  -0.43233  -0.42394
 Alpha  occ. eigenvalues --   -0.42131  -0.41794  -0.41482  -0.40865  -0.39708
 Alpha  occ. eigenvalues --   -0.38802  -0.37435  -0.36665  -0.35521  -0.35278
 Alpha  occ. eigenvalues --   -0.34874  -0.33919  -0.33538  -0.32797  -0.32754
 Alpha  occ. eigenvalues --   -0.32702  -0.31957  -0.31150  -0.30917  -0.28658
 Alpha  occ. eigenvalues --   -0.26637  -0.24834  -0.24050
 Alpha virt. eigenvalues --   -0.00026   0.00147   0.02757   0.03491   0.04168
 Alpha virt. eigenvalues --    0.04934   0.05215   0.06687   0.07282   0.07998
 Alpha virt. eigenvalues --    0.09406   0.10007   0.10548   0.11001   0.11497

 Mulliken charges:
               1
     1  C   -0.326463
     2  N   -0.532394
     3  C   -0.325233
     4  S    1.337972
     5  O   -0.556411
     6  O   -0.540412
     7  N   -0.725948
     8  C    0.190525
     9  C   -0.483311
    10  S    1.103373
    11  O   -0.528635
    12  O   -0.543303
    13  C   -0.505786
    14  C   -0.295135
    15  C   -0.353929
    16  C    0.150173
    17  C   -0.192477
    18  C   -0.142582
    19  C   -0.141764
    20  C   -0.139777
    21  C   -0.192467
    22  H    0.187981
    23  H    0.182438
    24  H    0.169684
    25  H    0.180922
    26  H    0.202869
    27  H    0.169001
    28  H    0.381621
    29  H    0.227504
    30  H    0.212208
    31  H    0.231708
    32  H    0.219110
    33  H    0.185515
    34  H    0.170939
    35  H    0.143541
    36  H    0.178742
    37  H    0.158090
    38  H    0.137086
    39  H    0.136581
    40  H    0.137601
    41  H    0.130844
 Sum of Mulliken charges =   0.00000

 Dipole moment (field-independent basis, Debye):
    X=             -1.9360    Y=             -2.9723    Z=              1.4178  Tot=              3.8200
 Quadrupole moment (field-independent basis, Debye-Ang):
   XX=           -135.3221   YY=           -161.8227   ZZ=           -135.3646
   XY=             17.2582   XZ=             -1.2966   YZ=            -21.6518

 Normal termination of Gaussian 09 at Fri Oct  2 06:32:57 2020.
