 Gaussian 09, Revision D.01,

 -----------------
 #p b3lyp/6-31G(d)
 -----------------

 ----------------
 SM40.n.3.pdb.xyz
 ----------------
 Symbolic Z-matrix:
 Charge =  0 Multiplicity = 1

 SCF Done:  E(RB3LYP) =  -1714.03702852     A.U. after   16 cycles
 Normal termination of Gaussian 09 at Thu Oct  1 21:43:43 2020.
 Gaussian 09:  AM64L-G09RevD.01 24-Apr-2013

 ----------------------------------------------------------------------
 #p b3lyp/6-31G(d) scrf=(iefpcm,read,solvent=Water) geom=allcheck guess
 =read
 ----------------------------------------------------------------------

 Structure from the checkpoint file:  "SM40.n.3.pdb.xyz.mst.n.w.chk"
 ----------------
 SM40.n.3.pdb.xyz
 ----------------
 Charge =  0 Multiplicity = 1

                         Standard orientation:
 ---------------------------------------------------------------------
 Center     Atomic      Atomic             Coordinates (Angstroms)
 Number     Number       Type             X           Y           Z
 ---------------------------------------------------------------------
      1          6           0       -4.813326   -0.731959    0.307213
      2          7           0       -3.724457   -0.874843   -0.671042
      3          6           0       -3.717062    0.145855   -1.729676
      4         16           0       -2.228401   -1.273143   -0.058861
      5          8           0       -2.449394   -2.330972    0.935437
      6          8           0       -1.334234   -1.526452   -1.191850
      7          7           0       -1.676205    0.147272    0.679762
      8          6           0       -0.221959    0.407969    0.824546
      9          6           0       -0.119637    1.823301    1.477962
     10         16           0        0.155392    2.564069   -0.167963
     11          8           0       -1.082114    3.132351   -0.743481
     12          8           0        1.392343    3.364729   -0.264883
     13          6           0        0.372002    0.801977   -0.564496
     14          6           0        0.491658   -0.715638    1.597530
     15          6           0        1.999457   -0.561241    1.878445
     16          6           0        2.922337   -0.824544    0.706242
     17          6           0        3.879534    0.121970    0.322244
     18          6           0        4.755618   -0.129180   -0.736097
     19          6           0        4.687040   -1.338408   -1.428611
     20          6           0        3.736285   -2.292175   -1.053934
     21          6           0        2.865211   -2.035949    0.004027
     22          1           0       -5.755423   -0.821681   -0.236716
     23          1           0       -4.790494    0.240699    0.815759
     24          1           0       -4.748578   -1.534465    1.039110
     25          1           0       -4.689853    0.111785   -2.221724
     26          1           0       -2.944240   -0.097025   -2.457201
     27          1           0       -3.546360    1.152714   -1.330814
     28          1           0       -2.159825    0.245289    1.576863
     29          1           0        0.771551    1.956162    2.090135
     30          1           0       -1.005555    2.188353    1.996441
     31          1           0        1.436008    0.580509   -0.654313
     32          1           0       -0.177243    0.452666   -1.433839
     33          1           0        0.326739   -1.650986    1.056378
     34          1           0       -0.028785   -0.815946    2.554942
     35          1           0        2.238105   -1.275633    2.677092
     36          1           0        2.216930    0.429251    2.291040
     37          1           0        3.933667    1.065148    0.857552
     38          1           0        5.488797    0.620170   -1.017235
     39          1           0        5.365076   -1.535929   -2.252428
     40          1           0        3.675637   -3.237100   -1.585304
     41          1           0        2.130877   -2.784913    0.288250
 ---------------------------------------------------------------------

 SCF Done:  E(RB3LYP) =  -1714.06346937     A.U. after   11 cycles

 The electronic state is 1-A.
 Alpha  occ. eigenvalues --  -89.14175 -89.09696 -19.16071 -19.15895 -19.15459
 Alpha  occ. eigenvalues --  -19.15256 -14.38188 -14.37686 -10.27730 -10.23257
 Alpha  occ. eigenvalues --  -10.22434 -10.22242 -10.21947 -10.20164 -10.20056
 Alpha  occ. eigenvalues --  -10.19759 -10.19253 -10.19231 -10.19064 -10.19051
 Alpha  occ. eigenvalues --  -10.19044  -8.16411  -8.12764  -6.12868  -6.12846
 Alpha  occ. eigenvalues --   -6.12821  -6.09212  -6.09115  -6.09017  -1.13586
 Alpha  occ. eigenvalues --   -1.10513  -1.01895  -1.00193  -0.95389  -0.94252
 Alpha  occ. eigenvalues --   -0.86188  -0.85247  -0.79580  -0.74693  -0.74352
 Alpha  occ. eigenvalues --   -0.72810  -0.72407  -0.71583  -0.67326  -0.63009
 Alpha  occ. eigenvalues --   -0.60785  -0.60233  -0.58357  -0.57159  -0.54915
 Alpha  occ. eigenvalues --   -0.52415  -0.51853  -0.51526  -0.50340  -0.49297
 Alpha  occ. eigenvalues --   -0.48755  -0.47172  -0.46467  -0.46217  -0.45449
 Alpha  occ. eigenvalues --   -0.45048  -0.44147  -0.43773  -0.42795  -0.42198
 Alpha  occ. eigenvalues --   -0.41677  -0.41396  -0.41132  -0.40820  -0.39627
 Alpha  occ. eigenvalues --   -0.38986  -0.37331  -0.36775  -0.35854  -0.35587
 Alpha  occ. eigenvalues --   -0.34431  -0.34074  -0.33626  -0.33074  -0.33021
 Alpha  occ. eigenvalues --   -0.32449  -0.31683  -0.30759  -0.29530  -0.28461
 Alpha  occ. eigenvalues --   -0.26357  -0.25470  -0.24521
 Alpha virt. eigenvalues --   -0.00788  -0.00518   0.03384   0.03949   0.05171
 Alpha virt. eigenvalues --    0.06138   0.06184   0.07427   0.08251   0.08749
 Alpha virt. eigenvalues --    0.09786   0.09959   0.10397   0.11455   0.12308

 Mulliken charges:
               1
     1  C   -0.334921
     2  N   -0.514899
     3  C   -0.332930
     4  S    1.356199
     5  O   -0.574331
     6  O   -0.594356
     7  N   -0.728679
     8  C    0.147957
     9  C   -0.496701
    10  S    1.110632
    11  O   -0.563152
    12  O   -0.561727
    13  C   -0.484175
    14  C   -0.289224
    15  C   -0.373051
    16  C    0.148537
    17  C   -0.208111
    18  C   -0.142012
    19  C   -0.151011
    20  C   -0.146860
    21  C   -0.191295
    22  H    0.191670
    23  H    0.172563
    24  H    0.199677
    25  H    0.188332
    26  H    0.194346
    27  H    0.178398
    28  H    0.404412
    29  H    0.231762
    30  H    0.237167
    31  H    0.227178
    32  H    0.244981
    33  H    0.186510
    34  H    0.171220
    35  H    0.180639
    36  H    0.163481
    37  H    0.148113
    38  H    0.151631
    39  H    0.150451
    40  H    0.151537
    41  H    0.150042
 Sum of Mulliken charges =   0.00000

 Dipole moment (field-independent basis, Debye):
    X=             -2.2986    Y=             -1.1141    Z=              4.9688  Tot=              5.5869
 Quadrupole moment (field-independent basis, Debye-Ang):
   XX=           -117.1387   YY=           -170.4707   ZZ=           -127.0247
   XY=            -10.2811   XZ=             -3.7369   YZ=             10.2695

 Normal termination of Gaussian 09 at Thu Oct  1 21:49:30 2020.
