 Gaussian 09, Revision D.01,

 -----------------
 #p b3lyp/6-31G(d)
 -----------------

 --------------------
 SM40_38w.n.2.pdb.xyz
 --------------------
 Symbolic Z-matrix:
 Charge =  0 Multiplicity = 1

 SCF Done:  E(RB3LYP) =  -1714.04192059     A.U. after   15 cycles
 Normal termination of Gaussian 09 at Mon Sep 21 21:01:03 2020.
 Gaussian 09:  AM64L-G09RevD.01 24-Apr-2013

 ----------------------------------------------------------------------
 #p b3lyp/6-31G(d) scrf=(iefpcm,read,solvent=n-Octanol) geom=allcheck g
 uess=read
 ----------------------------------------------------------------------

 Structure from the checkpoint file:  "SM40_38w.n.2.pdb.xyz.mst.n.o.chk"
 --------------------
 SM40_38w.n.2.pdb.xyz
 --------------------
 Charge =  0 Multiplicity = 1

                         Standard orientation:
 ---------------------------------------------------------------------
 Center     Atomic      Atomic             Coordinates (Angstroms)
 Number     Number       Type             X           Y           Z
 ---------------------------------------------------------------------
      1         16           0       -1.790898   -1.812231   -0.400865
      2          7           0       -1.313892   -0.353686   -1.083332
      3          6           0       -0.357035    0.562192   -0.422907
      4          6           0       -0.930672    1.019705    0.957885
      5         16           0       -1.503600    2.587149    0.216136
      6          6           0       -0.490494    1.937540   -1.158968
      7          8           0       -2.942189    2.562930   -0.097372
      8          8           0       -0.925717    3.782861    0.850393
      9          6           0        1.072725   -0.014767   -0.402611
     10          6           0        2.151045    0.867340    0.252134
     11          6           0        3.517127    0.217082    0.194929
     12          6           0        4.408932    0.520500   -0.840676
     13          6           0        5.656746   -0.098607   -0.914981
     14          6           0        6.033092   -1.032376    0.050553
     15          6           0        5.153615   -1.341631    1.089612
     16          6           0        3.906750   -0.721320    1.159960
     17          8           0       -0.826297   -2.318046    0.580328
     18          8           0       -2.163715   -2.647773   -1.548740
     19          1           0       -1.089520   -0.528077   -2.059549
     20          1           0       -0.164895    1.219964    1.704353
     21          1           0       -1.738653    0.407630    1.357774
     22          1           0        0.444629    2.491819   -1.226473
     23          1           0       -1.004922    1.919495   -2.120368
     24          1           0        1.361115   -0.217881   -1.440469
     25          1           0        1.028145   -0.979445    0.107604
     26          1           0        1.884426    1.059542    1.297198
     27          1           0        2.198951    1.840366   -0.247161
     28          1           0        4.123116    1.252263   -1.591438
     29          1           0        6.336087    0.153385   -1.722939
     30          1           0        7.004563   -1.513207   -0.003178
     31          1           0        5.438701   -2.063658    1.848721
     32          1           0        3.229953   -0.962169    1.974193
     33          7           0       -3.121577   -1.297800    0.497561
     34          6           0       -3.552538   -2.268143    1.518055
     35          1           0       -2.687090   -2.598661    2.087742
     36          1           0       -4.245304   -1.749556    2.182397
     37          1           0       -4.062965   -3.135508    1.082017
     38          6           0       -4.224343   -0.756833   -0.310919
     39          1           0       -4.734311   -1.535139   -0.889356
     40          1           0       -4.934010   -0.296854    0.379566
     41          1           0       -3.834117    0.013548   -0.973833
 ---------------------------------------------------------------------

 SCF Done:  E(RB3LYP) =  -1714.07074078     A.U. after   11 cycles

 The electronic state is 1-A.
 Alpha  occ. eigenvalues --  -89.14126 -89.09807 -19.15911 -19.15763 -19.15384
 Alpha  occ. eigenvalues --  -19.15276 -14.38420 -14.38200 -10.28269 -10.23635
 Alpha  occ. eigenvalues --  -10.23122 -10.22450 -10.21989 -10.20321 -10.20231
 Alpha  occ. eigenvalues --  -10.20113 -10.19198 -10.19189 -10.19095 -10.19077
 Alpha  occ. eigenvalues --  -10.19040  -8.16370  -8.12858  -6.12861  -6.12793
 Alpha  occ. eigenvalues --   -6.12751  -6.09292  -6.09212  -6.09130  -1.13440
 Alpha  occ. eigenvalues --   -1.10695  -1.01675  -1.00412  -0.95862  -0.94336
 Alpha  occ. eigenvalues --   -0.86249  -0.85583  -0.79850  -0.74602  -0.74543
 Alpha  occ. eigenvalues --   -0.73290  -0.72840  -0.71395  -0.67621  -0.62918
 Alpha  occ. eigenvalues --   -0.60755  -0.60463  -0.58653  -0.57617  -0.54642
 Alpha  occ. eigenvalues --   -0.53605  -0.51861  -0.51280  -0.50365  -0.49875
 Alpha  occ. eigenvalues --   -0.48613  -0.47278  -0.47012  -0.46243  -0.45678
 Alpha  occ. eigenvalues --   -0.45146  -0.44665  -0.43930  -0.43118  -0.42174
 Alpha  occ. eigenvalues --   -0.42057  -0.41779  -0.41339  -0.40969  -0.39083
 Alpha  occ. eigenvalues --   -0.39004  -0.38162  -0.36914  -0.35637  -0.35482
 Alpha  occ. eigenvalues --   -0.34649  -0.34149  -0.33776  -0.33453  -0.32824
 Alpha  occ. eigenvalues --   -0.32392  -0.31708  -0.30804  -0.29565  -0.28689
 Alpha  occ. eigenvalues --   -0.26259  -0.25297  -0.24549
 Alpha virt. eigenvalues --   -0.00484  -0.00357   0.02930   0.03772   0.04744
 Alpha virt. eigenvalues --    0.05756   0.06081   0.06602   0.07525   0.08683
 Alpha virt. eigenvalues --    0.08927   0.09697   0.10167   0.10374   0.12000

 Mulliken charges:
               1
     1  S    1.336618
     2  N   -0.735107
     3  C    0.164493
     4  C   -0.508854
     5  S    1.114804
     6  C   -0.499371
     7  O   -0.537301
     8  O   -0.535325
     9  C   -0.281976
    10  C   -0.382134
    11  C    0.167011
    12  C   -0.187712
    13  C   -0.138798
    14  C   -0.139841
    15  C   -0.139232
    16  C   -0.184080
    17  O   -0.557812
    18  O   -0.543529
    19  H    0.386049
    20  H    0.218558
    21  H    0.252891
    22  H    0.220646
    23  H    0.227240
    24  H    0.156650
    25  H    0.197970
    26  H    0.160592
    27  H    0.156161
    28  H    0.133996
    29  H    0.141281
    30  H    0.140697
    31  H    0.141895
    32  H    0.135845
    33  N   -0.528403
    34  C   -0.330438
    35  H    0.200670
    36  H    0.183579
    37  H    0.168413
    38  C   -0.326873
    39  H    0.166919
    40  H    0.179889
    41  H    0.203920
 Sum of Mulliken charges =   0.00000

 Dipole moment (field-independent basis, Debye):
    X=              1.5521    Y=             -1.3553    Z=             -0.9485  Tot=              2.2684
 Quadrupole moment (field-independent basis, Debye-Ang):
   XX=           -128.9072   YY=           -168.3419   ZZ=           -129.4662
   XY=             10.1936   XZ=             -7.6088   YZ=            -14.8607

 Normal termination of Gaussian 09 at Mon Sep 21 21:05:48 2020.
