 Gaussian 09, Revision D.01,

 -----------------
 #p b3lyp/6-31G(d)
 -----------------

 -----------------
 SM40.n.27.pdb.xyz
 -----------------
 Symbolic Z-matrix:
 Charge =  0 Multiplicity = 1

 SCF Done:  E(RB3LYP) =  -1714.03737026     A.U. after   15 cycles
 Normal termination of Gaussian 09 at Fri Oct  2 06:19:19 2020.
 Gaussian 09:  AM64L-G09RevD.01 24-Apr-2013

 ----------------------------------------------------------------------
 #p b3lyp/6-31G(d) scrf=(iefpcm,read,solvent=n-Octanol) geom=allcheck g
 uess=read
 ----------------------------------------------------------------------

 Structure from the checkpoint file:  "SM40.n.27.pdb.xyz.mst.n.o.chk"
 -----------------
 SM40.n.27.pdb.xyz
 -----------------
 Charge =  0 Multiplicity = 1

                         Standard orientation:
 ---------------------------------------------------------------------
 Center     Atomic      Atomic             Coordinates (Angstroms)
 Number     Number       Type             X           Y           Z
 ---------------------------------------------------------------------
      1          6           0       -3.691162   -0.720146    2.080453
      2          7           0       -2.674168   -1.155461    1.107596
      3          6           0       -2.359673   -2.590196    1.175077
      4         16           0       -2.932588   -0.583541   -0.454736
      5          8           0       -3.763261   -1.482481   -1.264031
      6          8           0       -3.328107    0.821088   -0.305900
      7          7           0       -1.397378   -0.757426   -1.098674
      8          6           0       -0.276780    0.191069   -0.930325
      9          6           0        0.098526    0.397649    0.572862
     10         16           0        0.021916    2.212549    0.364789
     11          8           0       -0.981470    2.865623    1.220182
     12          8           0        1.366935    2.815513    0.263962
     13          6           0       -0.599669    1.691795   -1.272180
     14          6           0        0.844573   -0.393308   -1.811577
     15          6           0        2.249998    0.240047   -1.720143
     16          6           0        3.153494   -0.347223   -0.651920
     17          6           0        3.586759   -1.677984   -0.741461
     18          6           0        4.435283   -2.221516    0.221106
     19          6           0        4.870357   -1.442193    1.293876
     20          6           0        4.450491   -0.115202    1.393228
     21          6           0        3.600353    0.427074    0.427080
     22          1           0       -3.302455   -0.945460    3.075631
     23          1           0       -4.647699   -1.240805    1.947235
     24          1           0       -3.839990    0.352879    1.987645
     25          1           0       -1.987171   -2.798636    2.178894
     26          1           0       -1.576497   -2.817587    0.452145
     27          1           0       -3.236415   -3.216780    0.976058
     28          1           0       -1.497645   -1.099770   -2.052771
     29          1           0        1.084039    0.043480    0.870460
     30          1           0       -0.677386    0.052322    1.256399
     31          1           0       -0.037538    2.128367   -2.098675
     32          1           0       -1.665673    1.895557   -1.352817
     33          1           0        0.496862   -0.315462   -2.847759
     34          1           0        0.921176   -1.461984   -1.588890
     35          1           0        2.183620    1.325153   -1.588723
     36          1           0        2.721644    0.080882   -2.694795
     37          1           0        3.264333   -2.292816   -1.577775
     38          1           0        4.761075   -3.252805    0.131573
     39          1           0        5.532272   -1.864501    2.042126
     40          1           0        4.784249    0.500892    2.221480
     41          1           0        3.262685    1.456017    0.509101
 ---------------------------------------------------------------------

 SCF Done:  E(RB3LYP) =  -1714.06621009     A.U. after   11 cycles

 The electronic state is 1-A.
 Alpha  occ. eigenvalues --  -89.14318 -89.09444 -19.16042 -19.15858 -19.15046
 Alpha  occ. eigenvalues --  -19.15032 -14.38494 -14.38455 -10.28160 -10.22667
 Alpha  occ. eigenvalues --  -10.22620 -10.22551 -10.22536 -10.21027 -10.19923
 Alpha  occ. eigenvalues --  -10.19863 -10.19151 -10.19044 -10.19010 -10.18963
 Alpha  occ. eigenvalues --  -10.18532  -8.16552  -8.12519  -6.13040  -6.12979
 Alpha  occ. eigenvalues --   -6.12935  -6.08958  -6.08868  -6.08784  -1.13617
 Alpha  occ. eigenvalues --   -1.10343  -1.01802  -1.00063  -0.95814  -0.94477
 Alpha  occ. eigenvalues --   -0.86173  -0.85323  -0.79665  -0.74991  -0.74430
 Alpha  occ. eigenvalues --   -0.73204  -0.72361  -0.71712  -0.67832  -0.62781
 Alpha  occ. eigenvalues --   -0.60636  -0.60498  -0.58129  -0.57177  -0.54367
 Alpha  occ. eigenvalues --   -0.53779  -0.51741  -0.51450  -0.50445  -0.49601
 Alpha  occ. eigenvalues --   -0.48880  -0.47259  -0.46505  -0.46245  -0.45700
 Alpha  occ. eigenvalues --   -0.45092  -0.44831  -0.44181  -0.42946  -0.42172
 Alpha  occ. eigenvalues --   -0.41640  -0.41559  -0.41138  -0.40762  -0.40302
 Alpha  occ. eigenvalues --   -0.39272  -0.37201  -0.36433  -0.35959  -0.35511
 Alpha  occ. eigenvalues --   -0.34513  -0.33898  -0.33561  -0.33374  -0.32775
 Alpha  occ. eigenvalues --   -0.32025  -0.31805  -0.30295  -0.29991  -0.28032
 Alpha  occ. eigenvalues --   -0.26492  -0.25192  -0.24483
 Alpha virt. eigenvalues --   -0.00702  -0.00314   0.03161   0.04175   0.05030
 Alpha virt. eigenvalues --    0.05719   0.05787   0.06451   0.06906   0.08755
 Alpha virt. eigenvalues --    0.09516   0.10030   0.10928   0.11643   0.11919

 Mulliken charges:
               1
     1  C   -0.329966
     2  N   -0.531258
     3  C   -0.325441
     4  S    1.327294
     5  O   -0.544761
     6  O   -0.552151
     7  N   -0.743947
     8  C    0.211907
     9  C   -0.524137
    10  S    1.119943
    11  O   -0.529937
    12  O   -0.556123
    13  C   -0.510945
    14  C   -0.312548
    15  C   -0.380173
    16  C    0.149120
    17  C   -0.186213
    18  C   -0.137197
    19  C   -0.140391
    20  C   -0.138171
    21  C   -0.218852
    22  H    0.183114
    23  H    0.168779
    24  H    0.207829
    25  H    0.182869
    26  H    0.191074
    27  H    0.174824
    28  H    0.384777
    29  H    0.230171
    30  H    0.245991
    31  H    0.218478
    32  H    0.249961
    33  H    0.163021
    34  H    0.175885
    35  H    0.177955
    36  H    0.169737
    37  H    0.134910
    38  H    0.139988
    39  H    0.139621
    40  H    0.140989
    41  H    0.173974
 Sum of Mulliken charges =   0.00000

 Dipole moment (field-independent basis, Debye):
    X=              1.9745    Y=             -6.6481    Z=             -1.1896  Tot=              7.0364
 Quadrupole moment (field-independent basis, Debye-Ang):
   XX=           -152.9184   YY=           -149.1559   ZZ=           -125.0983
   XY=             -1.0426   XZ=             -8.4040   YZ=            -11.7764

 Normal termination of Gaussian 09 at Fri Oct  2 06:24:14 2020.
