 Gaussian 09, Revision D.01,

 -----------------
 #p b3lyp/6-31G(d)
 -----------------

 -----------------
 SM40.n.27.pdb.xyz
 -----------------
 Symbolic Z-matrix:
 Charge =  0 Multiplicity = 1

 SCF Done:  E(RB3LYP) =  -1714.03660686     A.U. after   16 cycles
 Normal termination of Gaussian 09 at Fri Oct  2 01:35:54 2020.
 Gaussian 09:  AM64L-G09RevD.01 24-Apr-2013

 ----------------------------------------------------------------------
 #p b3lyp/6-31G(d) scrf=(iefpcm,read,solvent=Water) geom=allcheck guess
 =read
 ----------------------------------------------------------------------

 Structure from the checkpoint file:  "SM40.n.27.pdb.xyz.mst.n.w.chk"
 -----------------
 SM40.n.27.pdb.xyz
 -----------------
 Charge =  0 Multiplicity = 1

                         Standard orientation:
 ---------------------------------------------------------------------
 Center     Atomic      Atomic             Coordinates (Angstroms)
 Number     Number       Type             X           Y           Z
 ---------------------------------------------------------------------
      1          6           0        3.627882   -0.799233   -2.111741
      2          7           0        2.646932   -1.197239   -1.084573
      3          6           0        2.343982   -2.637378   -1.078826
      4         16           0        2.928488   -0.546420    0.438188
      5          8           0        3.811546   -1.379316    1.267795
      6          8           0        3.305080    0.856737    0.213044
      7          7           0        1.419506   -0.719061    1.131899
      8          6           0        0.277944    0.201157    0.944903
      9          6           0       -0.104124    0.382052   -0.560361
     10         16           0       -0.014675    2.197147   -0.388439
     11          8           0        1.012496    2.825833   -1.240874
     12          8           0       -1.352055    2.829543   -0.343142
     13          6           0        0.573557    1.712042    1.268724
     14          6           0       -0.833590   -0.391964    1.834052
     15          6           0       -2.244602    0.226617    1.741460
     16          6           0       -3.143025   -0.357395    0.666946
     17          6           0       -3.497121   -1.714901    0.693808
     18          6           0       -4.349801   -2.252364   -0.268886
     19          6           0       -4.870462   -1.439612   -1.279500
     20          6           0       -4.527327   -0.088544   -1.317334
     21          6           0       -3.671310    0.447713   -0.350978
     22          1           0        3.214827   -1.094274   -3.077718
     23          1           0        4.599192   -1.289107   -1.976091
     24          1           0        3.753307    0.281666   -2.091152
     25          1           0        1.947603   -2.891153   -2.062803
     26          1           0        1.583386   -2.841138   -0.326471
     27          1           0        3.233621   -3.246760   -0.881042
     28          1           0        1.556247   -0.981412    2.110242
     29          1           0       -1.095819    0.034052   -0.844578
     30          1           0        0.655743    0.015884   -1.250613
     31          1           0       -0.014680    2.155936    2.072007
     32          1           0        1.632475    1.936501    1.376987
     33          1           0       -0.486227   -0.302867    2.868027
     34          1           0       -0.897722   -1.462998    1.617193
     35          1           0       -2.192060    1.313024    1.624377
     36          1           0       -2.717501    0.053064    2.714266
     37          1           0       -3.105113   -2.355777    1.478998
     38          1           0       -4.612495   -3.304405   -0.228595
     39          1           0       -5.535260   -1.857587   -2.028362
     40          1           0       -4.923537    0.553130   -2.099251
     41          1           0       -3.390620    1.495170   -0.390883
 ---------------------------------------------------------------------

 SCF Done:  E(RB3LYP) =  -1714.06164111     A.U. after   11 cycles

 The electronic state is 1-A.
 Alpha  occ. eigenvalues --  -89.14311 -89.09650 -19.16024 -19.15885 -19.15380
 Alpha  occ. eigenvalues --  -19.15369 -14.38206 -14.37989 -10.27785 -10.22491
 Alpha  occ. eigenvalues --  -10.22419 -10.22084 -10.22009 -10.20345 -10.19879
 Alpha  occ. eigenvalues --  -10.19520 -10.19092 -10.19026 -10.18918 -10.18908
 Alpha  occ. eigenvalues --  -10.18611  -8.16530  -8.12736  -6.13014  -6.12965
 Alpha  occ. eigenvalues --   -6.12914  -6.09188  -6.09084  -6.08983  -1.13492
 Alpha  occ. eigenvalues --   -1.10534  -1.01647  -1.00241  -0.95533  -0.94065
 Alpha  occ. eigenvalues --   -0.86056  -0.85250  -0.79387  -0.74805  -0.74374
 Alpha  occ. eigenvalues --   -0.72671  -0.72153  -0.71456  -0.67590  -0.62525
 Alpha  occ. eigenvalues --   -0.60425  -0.60325  -0.57905  -0.56873  -0.53931
 Alpha  occ. eigenvalues --   -0.53506  -0.51714  -0.51306  -0.50367  -0.49494
 Alpha  occ. eigenvalues --   -0.48677  -0.46912  -0.46327  -0.46183  -0.45500
 Alpha  occ. eigenvalues --   -0.44932  -0.44697  -0.44048  -0.42695  -0.41796
 Alpha  occ. eigenvalues --   -0.41534  -0.40998  -0.40980  -0.40457  -0.39941
 Alpha  occ. eigenvalues --   -0.38790  -0.36936  -0.36243  -0.35923  -0.35506
 Alpha  occ. eigenvalues --   -0.34397  -0.33730  -0.33525  -0.33383  -0.32902
 Alpha  occ. eigenvalues --   -0.32403  -0.31852  -0.30488  -0.30095  -0.27959
 Alpha  occ. eigenvalues --   -0.26208  -0.25252  -0.24463
 Alpha virt. eigenvalues --   -0.00666  -0.00321   0.03312   0.04180   0.05056
 Alpha virt. eigenvalues --    0.05726   0.06176   0.06742   0.07348   0.09033
 Alpha virt. eigenvalues --    0.09885   0.10349   0.11334   0.12218   0.12260

 Mulliken charges:
               1
     1  C   -0.325226
     2  N   -0.532385
     3  C   -0.325274
     4  S    1.326533
     5  O   -0.566084
     6  O   -0.572063
     7  N   -0.740829
     8  C    0.203465
     9  C   -0.519018
    10  S    1.124151
    11  O   -0.560148
    12  O   -0.573381
    13  C   -0.499070
    14  C   -0.308343
    15  C   -0.374722
    16  C    0.146352
    17  C   -0.194628
    18  C   -0.148843
    19  C   -0.151115
    20  C   -0.148040
    21  C   -0.214199
    22  H    0.189338
    23  H    0.172566
    24  H    0.199746
    25  H    0.188601
    26  H    0.195072
    27  H    0.174305
    28  H    0.411079
    29  H    0.235522
    30  H    0.251052
    31  H    0.230185
    32  H    0.246233
    33  H    0.174288
    34  H    0.179679
    35  H    0.171018
    36  H    0.176895
    37  H    0.146573
    38  H    0.149299
    39  H    0.148521
    40  H    0.148845
    41  H    0.164049
 Sum of Mulliken charges =   0.00000

 Dipole moment (field-independent basis, Debye):
    X=             -2.4834    Y=             -7.5484    Z=              1.9957  Tot=              8.1932
 Quadrupole moment (field-independent basis, Debye-Ang):
   XX=           -156.4522   YY=           -149.3630   ZZ=           -123.6305
   XY=             -0.1637   XZ=             -8.3882   YZ=             13.7987

 Normal termination of Gaussian 09 at Fri Oct  2 01:41:09 2020.
