 Gaussian 09, Revision D.01,

 -----------------
 #p b3lyp/6-31G(d)
 -----------------

 ------------------
 SM40.n.12w.pdb.xyz
 ------------------
 Symbolic Z-matrix:
 Charge =  0 Multiplicity = 1

 SCF Done:  E(RB3LYP) =  -1714.04059025     A.U. after   15 cycles
 Normal termination of Gaussian 09 at Fri Oct  2 02:50:45 2020.
 Gaussian 09:  AM64L-G09RevD.01 24-Apr-2013

 ----------------------------------------------------------------------
 #p b3lyp/6-31G(d) scrf=(iefpcm,read,solvent=Water) geom=allcheck guess
 =read
 ----------------------------------------------------------------------

 Structure from the checkpoint file:  "SM40.n.12w.pdb.xyz.mst.n.w.chk"
 ------------------
 SM40.n.12w.pdb.xyz
 ------------------
 Charge =  0 Multiplicity = 1

                         Standard orientation:
 ---------------------------------------------------------------------
 Center     Atomic      Atomic             Coordinates (Angstroms)
 Number     Number       Type             X           Y           Z
 ---------------------------------------------------------------------
      1          7           0       -0.867258   -0.881774   -0.711920
      2          7           0       -2.666930   -1.511213    1.018509
      3          6           0       -0.341726    0.470177   -0.474185
      4          6           0       -0.800541    1.084749    0.886275
      5          6           0       -0.905487    1.602841   -1.408071
      6          6           0        1.189108    0.395435   -0.591831
      7          6           0        1.859401   -0.573448    0.394317
      8          6           0        3.366160   -0.565014    0.259430
      9          6           0        4.145280    0.358391    0.969858
     10          6           0        5.532689    0.387098    0.824853
     11          6           0        6.166736   -0.511392   -0.036243
     12          6           0        5.401410   -1.437924   -0.749112
     13          6           0        4.014009   -1.461887   -0.600717
     14          6           0       -4.056923   -1.436278    1.500498
     15          6           0       -1.911933   -2.649796    1.560817
     16          8           0       -3.367545   -0.152930   -0.975458
     17          8           0       -2.545818    3.140573    0.228795
     18          8           0       -0.059988    3.635461    0.227772
     19          8           0       -2.604787   -2.522107   -1.410979
     20         16           0       -2.486556   -1.279526   -0.632516
     21         16           0       -1.160691    2.663163    0.052889
     22          1           0       -0.469260   -1.322793   -1.543128
     23          1           0       -0.038086    1.163692    1.659720
     24          1           0       -1.710036    0.635074    1.284600
     25          1           0       -0.212784    2.018014   -2.139367
     26          1           0       -1.868184    1.352703   -1.850012
     27          1           0        1.580537    1.406102   -0.443426
     28          1           0        1.441306    0.113024   -1.620521
     29          1           0        1.474657   -1.582084    0.220043
     30          1           0        1.582288   -0.297113    1.417404
     31          1           0        3.659288    1.056333    1.645804
     32          1           0        6.118987    1.106759    1.387804
     33          1           0        7.245380   -0.492686   -0.147987
     34          1           0        5.885166   -2.143380   -1.416600
     35          1           0        3.424896   -2.188428   -1.153145
     36          1           0       -4.533163   -0.545171    1.098628
     37          1           0       -4.013441   -1.360404    2.588690
     38          1           0       -4.640413   -2.324334    1.230170
     39          1           0       -0.887630   -2.610089    1.192056
     40          1           0       -2.364615   -3.611116    1.293918
     41          1           0       -1.903626   -2.547066    2.646898
 ---------------------------------------------------------------------

 SCF Done:  E(RB3LYP) =  -1714.06830200     A.U. after   11 cycles

 The electronic state is 1-A.
 Alpha  occ. eigenvalues --  -89.14424 -89.09774 -19.16129 -19.15988 -19.15511
 Alpha  occ. eigenvalues --  -19.15358 -14.38255 -14.38128 -10.27764 -10.22792
 Alpha  occ. eigenvalues --  -10.22507 -10.22123 -10.22073 -10.20408 -10.19913
 Alpha  occ. eigenvalues --  -10.19401 -10.19095 -10.19085 -10.18948 -10.18929
 Alpha  occ. eigenvalues --  -10.18924  -8.16644  -8.12848  -6.13129  -6.13077
 Alpha  occ. eigenvalues --   -6.13028  -6.09297  -6.09200  -6.09100  -1.13589
 Alpha  occ. eigenvalues --   -1.10610  -1.01737  -1.00329  -0.95750  -0.94273
 Alpha  occ. eigenvalues --   -0.86131  -0.85585  -0.79651  -0.74652  -0.74455
 Alpha  occ. eigenvalues --   -0.72785  -0.72460  -0.71315  -0.67384  -0.62765
 Alpha  occ. eigenvalues --   -0.60702  -0.60432  -0.58148  -0.57258  -0.54330
 Alpha  occ. eigenvalues --   -0.53196  -0.51899  -0.51457  -0.50331  -0.49080
 Alpha  occ. eigenvalues --   -0.48756  -0.47409  -0.46613  -0.45935  -0.45666
 Alpha  occ. eigenvalues --   -0.45065  -0.44473  -0.43925  -0.42862  -0.41891
 Alpha  occ. eigenvalues --   -0.41797  -0.41745  -0.40918  -0.40765  -0.39078
 Alpha  occ. eigenvalues --   -0.38640  -0.38139  -0.36017  -0.35902  -0.35365
 Alpha  occ. eigenvalues --   -0.34708  -0.33760  -0.33712  -0.33375  -0.33051
 Alpha  occ. eigenvalues --   -0.32549  -0.31920  -0.30890  -0.30269  -0.27974
 Alpha  occ. eigenvalues --   -0.26260  -0.25301  -0.24501
 Alpha virt. eigenvalues --   -0.00414  -0.00346   0.03387   0.04592   0.05308
 Alpha virt. eigenvalues --    0.05723   0.06145   0.06961   0.07438   0.08622
 Alpha virt. eigenvalues --    0.09294   0.10089   0.10594   0.11291   0.12197

 Mulliken charges:
               1
     1  N   -0.737376
     2  N   -0.531287
     3  C    0.187525
     4  C   -0.506581
     5  C   -0.490508
     6  C   -0.304845
     7  C   -0.363889
     8  C    0.160858
     9  C   -0.196280
    10  C   -0.149476
    11  C   -0.151342
    12  C   -0.149210
    13  C   -0.197855
    14  C   -0.326434
    15  C   -0.329041
    16  O   -0.579473
    17  O   -0.557811
    18  O   -0.574700
    19  O   -0.564016
    20  S    1.333718
    21  S    1.106779
    22  H    0.415760
    23  H    0.232445
    24  H    0.249823
    25  H    0.230376
    26  H    0.243724
    27  H    0.176708
    28  H    0.176456
    29  H    0.172557
    30  H    0.162058
    31  H    0.144259
    32  H    0.149719
    33  H    0.148822
    34  H    0.149595
    35  H    0.144323
    36  H    0.200069
    37  H    0.189965
    38  H    0.173184
    39  H    0.197536
    40  H    0.174521
    41  H    0.189344
 Sum of Mulliken charges =   0.00000

 Dipole moment (field-independent basis, Debye):
    X=              4.3213    Y=             -6.5922    Z=              1.9748  Tot=              8.1259
 Quadrupole moment (field-independent basis, Debye-Ang):
   XX=           -146.5660   YY=           -165.3717   ZZ=           -127.8837
   XY=              9.2219   XZ=            -15.1291   YZ=             -9.1763

 Normal termination of Gaussian 09 at Fri Oct  2 02:55:49 2020.
