 Gaussian 09, Revision D.01,

 -----------------
 #p b3lyp/6-31G(d)
 -----------------

 -----------------
 SM40.n.30.pdb.xyz
 -----------------
 Symbolic Z-matrix:
 Charge =  0 Multiplicity = 1

 SCF Done:  E(RB3LYP) =  -1714.03923860     A.U. after   15 cycles
 Normal termination of Gaussian 09 at Thu Oct  1 22:35:15 2020.
 Gaussian 09:  AM64L-G09RevD.01 24-Apr-2013

 ----------------------------------------------------------------------
 #p b3lyp/6-31G(d) scrf=(iefpcm,read,solvent=Water) geom=allcheck guess
 =read
 ----------------------------------------------------------------------

 Structure from the checkpoint file:  "SM40.n.30.pdb.xyz.mst.n.w.chk"
 -----------------
 SM40.n.30.pdb.xyz
 -----------------
 Charge =  0 Multiplicity = 1

                         Standard orientation:
 ---------------------------------------------------------------------
 Center     Atomic      Atomic             Coordinates (Angstroms)
 Number     Number       Type             X           Y           Z
 ---------------------------------------------------------------------
      1          6           0       -3.926172   -2.363783    0.828203
      2          7           0       -3.000432   -1.704164   -0.108626
      3          6           0       -3.107028   -2.190964   -1.493166
      4         16           0       -2.955040   -0.034297    0.030105
      5          8           0       -3.979143    0.626658   -0.796206
      6          8           0       -2.916380    0.258021    1.469522
      7          7           0       -1.500229    0.321113   -0.724191
      8          6           0       -0.235978    0.425413    0.045570
      9          6           0       -0.234050    1.641650    1.039742
     10         16           0        0.670445    2.647317   -0.181892
     11          8           0       -0.236444    3.524217   -0.954600
     12          8           0        1.941797    3.215372    0.308564
     13          6           0        0.832409    0.991522   -0.947548
     14          6           0        0.085227   -0.936356    0.686056
     15          6           0        1.399986   -1.071188    1.480936
     16          6           0        2.666813   -1.242942    0.664293
     17          6           0        3.757489   -0.382544    0.845895
     18          6           0        4.940192   -0.555308    0.120625
     19          6           0        5.047913   -1.599772   -0.799436
     20          6           0        3.967958   -2.466450   -0.988222
     21          6           0        2.791029   -2.288796   -0.262091
     22          1           0       -3.697897   -3.430112    0.806072
     23          1           0       -4.978186   -2.220501    0.552534
     24          1           0       -3.755472   -1.983207    1.833541
     25          1           0       -2.895366   -3.261877   -1.477759
     26          1           0       -2.359487   -1.690385   -2.107707
     27          1           0       -4.104594   -2.027677   -1.916497
     28          1           0       -1.669602    1.120313   -1.337915
     29          1           0        0.391431    1.493731    1.920922
     30          1           0       -1.209189    2.029989    1.322016
     31          1           0        1.834863    0.603809   -0.772360
     32          1           0        0.574873    0.954708   -2.005656
     33          1           0        0.058253   -1.689179   -0.106630
     34          1           0       -0.742151   -1.164518    1.359750
     35          1           0        1.277952   -1.955526    2.119137
     36          1           0        1.527836   -0.229574    2.168361
     37          1           0        3.673844    0.432042    1.559418
     38          1           0        5.771752    0.124037    0.276266
     39          1           0        5.963521   -1.737480   -1.364581
     40          1           0        4.044328   -3.282330   -1.700194
     41          1           0        1.958076   -2.970259   -0.413785
 ---------------------------------------------------------------------

 SCF Done:  E(RB3LYP) =  -1714.06177558     A.U. after   11 cycles

 The electronic state is 1-A.
 Alpha  occ. eigenvalues --  -89.14240 -89.10042 -19.16086 -19.15885 -19.15861
 Alpha  occ. eigenvalues --  -19.15779 -14.38251 -14.37902 -10.28014 -10.23269
 Alpha  occ. eigenvalues --  -10.22954 -10.22021 -10.21929 -10.20121 -10.20060
 Alpha  occ. eigenvalues --  -10.19788 -10.19284 -10.19276 -10.19123 -10.19097
 Alpha  occ. eigenvalues --  -10.19089  -8.16482  -8.13128  -6.12971  -6.12910
 Alpha  occ. eigenvalues --   -6.12862  -6.09578  -6.09474  -6.09376  -1.13487
 Alpha  occ. eigenvalues --   -1.10919  -1.01669  -1.00688  -0.95653  -0.94215
 Alpha  occ. eigenvalues --   -0.86243  -0.85398  -0.79573  -0.74710  -0.74386
 Alpha  occ. eigenvalues --   -0.72894  -0.72514  -0.71537  -0.67872  -0.62851
 Alpha  occ. eigenvalues --   -0.60822  -0.60115  -0.58670  -0.56698  -0.54133
 Alpha  occ. eigenvalues --   -0.53130  -0.51885  -0.51604  -0.50477  -0.49642
 Alpha  occ. eigenvalues --   -0.48824  -0.47223  -0.46598  -0.46349  -0.45552
 Alpha  occ. eigenvalues --   -0.45069  -0.44746  -0.44326  -0.43263  -0.42136
 Alpha  occ. eigenvalues --   -0.41790  -0.41458  -0.40787  -0.40221  -0.39622
 Alpha  occ. eigenvalues --   -0.38706  -0.37422  -0.36460  -0.36051  -0.35558
 Alpha  occ. eigenvalues --   -0.35328  -0.34012  -0.33772  -0.33405  -0.32859
 Alpha  occ. eigenvalues --   -0.32346  -0.31676  -0.31303  -0.30112  -0.28699
 Alpha  occ. eigenvalues --   -0.25939  -0.25491  -0.24634
 Alpha virt. eigenvalues --   -0.00844  -0.00548   0.03138   0.03840   0.04634
 Alpha virt. eigenvalues --    0.05764   0.06121   0.07190   0.07944   0.08771
 Alpha virt. eigenvalues --    0.09346   0.10112   0.10417   0.11148   0.12365

 Mulliken charges:
               1
     1  C   -0.328443
     2  N   -0.523928
     3  C   -0.327554
     4  S    1.357050
     5  O   -0.567744
     6  O   -0.591594
     7  N   -0.734023
     8  C    0.161223
     9  C   -0.484739
    10  S    1.100286
    11  O   -0.570283
    12  O   -0.555511
    13  C   -0.505077
    14  C   -0.286586
    15  C   -0.374865
    16  C    0.148404
    17  C   -0.208948
    18  C   -0.142039
    19  C   -0.151172
    20  C   -0.146379
    21  C   -0.192600
    22  H    0.188656
    23  H    0.170461
    24  H    0.197440
    25  H    0.186593
    26  H    0.194508
    27  H    0.172023
    28  H    0.400591
    29  H    0.227325
    30  H    0.245133
    31  H    0.239166
    32  H    0.240490
    33  H    0.178578
    34  H    0.187278
    35  H    0.181012
    36  H    0.163150
    37  H    0.147888
    38  H    0.152180
    39  H    0.150516
    40  H    0.151631
    41  H    0.149905
 Sum of Mulliken charges =   0.00000

 Dipole moment (field-independent basis, Debye):
    X=              1.2534    Y=             -9.7146    Z=             -0.5525  Tot=              9.8107
 Quadrupole moment (field-independent basis, Debye-Ang):
   XX=           -146.5832   YY=           -152.7202   ZZ=           -133.3550
   XY=              9.2102   XZ=             -1.9277   YZ=              7.0713

 Normal termination of Gaussian 09 at Thu Oct  1 22:40:33 2020.
