 Gaussian 09, Revision D.01,

 -----------------
 #p b3lyp/6-31G(d)
 -----------------

 -----------------
 SM40.n.24.pdb.xyz
 -----------------
 Symbolic Z-matrix:
 Charge =  0 Multiplicity = 1

 SCF Done:  E(RB3LYP) =  -1714.04205519     A.U. after   16 cycles
 Normal termination of Gaussian 09 at Fri Oct  2 06:19:39 2020.
 Gaussian 09:  AM64L-G09RevD.01 24-Apr-2013

 ----------------------------------------------------------------------
 #p b3lyp/6-31G(d) scrf=(iefpcm,read,solvent=n-Octanol) geom=allcheck g
 uess=read
 ----------------------------------------------------------------------

 Structure from the checkpoint file:  "SM40.n.24.pdb.xyz.mst.n.o.chk"
 -----------------
 SM40.n.24.pdb.xyz
 -----------------
 Charge =  0 Multiplicity = 1

                         Standard orientation:
 ---------------------------------------------------------------------
 Center     Atomic      Atomic             Coordinates (Angstroms)
 Number     Number       Type             X           Y           Z
 ---------------------------------------------------------------------
      1          6           0        0.758684    3.651411   -0.827078
      2          7           0        0.185370    2.736306    0.175386
      3          6           0        0.309991    3.223783    1.556575
      4         16           0       -1.365720    2.208422   -0.212496
      5          8           0       -2.401587    3.121655    0.288515
      6          8           0       -1.335336    1.847011   -1.632509
      7          7           0       -1.496594    0.835951    0.759046
      8          6           0       -1.233492   -0.495095    0.186931
      9          6           0       -2.191120   -0.918605   -0.987758
     10         16           0       -2.532688   -2.499619   -0.143752
     11          8           0       -3.959967   -2.748334    0.113292
     12          8           0       -1.685631   -3.587495   -0.662672
     13          6           0       -1.689979   -1.591528    1.208007
     14          6           0        0.234872   -0.666514   -0.229850
     15          6           0        1.258007   -0.496846    0.903104
     16          6           0        2.673295   -0.747602    0.429039
     17          6           0        3.393336    0.248403   -0.243772
     18          6           0        4.688842    0.008232   -0.703475
     19          6           0        5.286523   -1.236270   -0.495856
     20          6           0        4.580420   -2.236431    0.173725
     21          6           0        3.285174   -1.991015    0.630896
     22          1           0        1.821690    3.753989   -0.601239
     23          1           0        0.294795    4.645975   -0.802606
     24          1           0        0.642237    3.217843   -1.817651
     25          1           0        1.374371    3.340206    1.768982
     26          1           0       -0.106127    2.480397    2.237831
     27          1           0       -0.196360    4.183597    1.706906
     28          1           0       -2.390924    0.902853    1.242604
     29          1           0       -1.736461   -1.025081   -1.972167
     30          1           0       -3.104230   -0.327721   -1.047689
     31          1           0       -0.898271   -2.158678    1.697648
     32          1           0       -2.424399   -1.250053    1.940039
     33          1           0        0.443778    0.047056   -1.031318
     34          1           0        0.331272   -1.664993   -0.666358
     35          1           0        1.026724   -1.191816    1.717509
     36          1           0        1.168532    0.514495    1.304962
     37          1           0        2.933378    1.219934   -0.404870
     38          1           0        5.232888    0.792960   -1.219953
     39          1           0        6.295410   -1.424602   -0.849558
     40          1           0        5.037664   -3.206193    0.343739
     41          1           0        2.739979   -2.771051    1.156187
 ---------------------------------------------------------------------

 SCF Done:  E(RB3LYP) =  -1714.07134257     A.U. after   11 cycles

 The electronic state is 1-A.
 Alpha  occ. eigenvalues --  -89.14316 -89.09927 -19.16283 -19.16031 -19.15626
 Alpha  occ. eigenvalues --  -19.15421 -14.38752 -14.38511 -10.28293 -10.23973
 Alpha  occ. eigenvalues --  -10.23285 -10.22763 -10.22705 -10.20256 -10.19879
 Alpha  occ. eigenvalues --  -10.19426 -10.19140 -10.19096 -10.18977 -10.18961
 Alpha  occ. eigenvalues --  -10.18945  -8.16596  -8.13002  -6.13082  -6.13013
 Alpha  occ. eigenvalues --   -6.12977  -6.09436  -6.09353  -6.09271  -1.13742
 Alpha  occ. eigenvalues --   -1.10872  -1.02004  -1.00638  -0.95925  -0.94779
 Alpha  occ. eigenvalues --   -0.86293  -0.85626  -0.79636  -0.74473  -0.74262
 Alpha  occ. eigenvalues --   -0.73445  -0.73079  -0.71983  -0.67469  -0.63378
 Alpha  occ. eigenvalues --   -0.60640  -0.59797  -0.58504  -0.57804  -0.54940
 Alpha  occ. eigenvalues --   -0.53768  -0.52109  -0.51631  -0.50617  -0.49352
 Alpha  occ. eigenvalues --   -0.48880  -0.47429  -0.47012  -0.46174  -0.45823
 Alpha  occ. eigenvalues --   -0.45259  -0.45081  -0.44535  -0.42827  -0.42478
 Alpha  occ. eigenvalues --   -0.42141  -0.41922  -0.41576  -0.40627  -0.39489
 Alpha  occ. eigenvalues --   -0.38910  -0.37443  -0.37048  -0.35823  -0.35520
 Alpha  occ. eigenvalues --   -0.35314  -0.33959  -0.33744  -0.33471  -0.32599
 Alpha  occ. eigenvalues --   -0.32458  -0.31907  -0.31003  -0.30505  -0.28594
 Alpha  occ. eigenvalues --   -0.26562  -0.25196  -0.24427
 Alpha virt. eigenvalues --   -0.00384  -0.00233   0.02944   0.03586   0.04413
 Alpha virt. eigenvalues --    0.05131   0.05543   0.05667   0.07621   0.08522
 Alpha virt. eigenvalues --    0.09050   0.09845   0.10188   0.11459   0.11721

 Mulliken charges:
               1
     1  C   -0.333741
     2  N   -0.522550
     3  C   -0.332817
     4  S    1.350506
     5  O   -0.546223
     6  O   -0.568205
     7  N   -0.732375
     8  C    0.174229
     9  C   -0.478213
    10  S    1.101998
    11  O   -0.530001
    12  O   -0.544012
    13  C   -0.506610
    14  C   -0.292244
    15  C   -0.360889
    16  C    0.162410
    17  C   -0.190263
    18  C   -0.139568
    19  C   -0.141155
    20  C   -0.138066
    21  C   -0.190263
    22  H    0.181805
    23  H    0.169937
    24  H    0.203273
    25  H    0.182079
    26  H    0.192143
    27  H    0.175654
    28  H    0.382529
    29  H    0.229651
    30  H    0.220787
    31  H    0.227737
    32  H    0.220387
    33  H    0.186218
    34  H    0.172143
    35  H    0.145258
    36  H    0.179182
    37  H    0.136241
    38  H    0.139660
    39  H    0.139585
    40  H    0.140705
    41  H    0.133079
 Sum of Mulliken charges =   0.00000

 Dipole moment (field-independent basis, Debye):
    X=              4.9484    Y=              4.4136    Z=              3.4626  Tot=              7.4804
 Quadrupole moment (field-independent basis, Debye-Ang):
   XX=           -150.8648   YY=           -152.8315   ZZ=           -134.7474
   XY=             -3.1427   XZ=             -7.0029   YZ=             -2.8244

 Normal termination of Gaussian 09 at Fri Oct  2 06:24:30 2020.
