 Gaussian 09, Revision D.01,

 -----------------
 #p b3lyp/6-31G(d)
 -----------------

 ----------------
 SM40.n.9.pdb.xyz
 ----------------
 Symbolic Z-matrix:
 Charge =  0 Multiplicity = 1

 SCF Done:  E(RB3LYP) =  -1714.03785352     A.U. after   15 cycles
 Normal termination of Gaussian 09 at Thu Oct  1 22:18:26 2020.
 Gaussian 09:  AM64L-G09RevD.01 24-Apr-2013

 ----------------------------------------------------------------------
 #p b3lyp/6-31G(d) scrf=(iefpcm,read,solvent=Water) geom=allcheck guess
 =read
 ----------------------------------------------------------------------

 Structure from the checkpoint file:  "SM40.n.9.pdb.xyz.mst.n.w.chk"
 ----------------
 SM40.n.9.pdb.xyz
 ----------------
 Charge =  0 Multiplicity = 1

                         Standard orientation:
 ---------------------------------------------------------------------
 Center     Atomic      Atomic             Coordinates (Angstroms)
 Number     Number       Type             X           Y           Z
 ---------------------------------------------------------------------
      1          6           0       -3.599216   -1.843278    0.759544
      2          7           0       -2.136544   -1.970389    0.864297
      3          6           0       -1.707150   -3.008431    1.819630
      4         16           0       -1.343105   -1.991862   -0.623147
      5          8           0        0.029268   -2.419226   -0.343419
      6          8           0       -2.117609   -2.702055   -1.650375
      7          7           0       -1.326758   -0.407726   -1.150127
      8          6           0       -0.833077    0.720743   -0.349375
      9          6           0       -1.751905    1.159137    0.851160
     10         16           0       -1.700184    2.881517    0.257711
     11          8           0       -3.024860    3.479187    0.005334
     12          8           0       -0.692437    3.687467    0.979002
     13          6           0       -0.977890    2.036266   -1.188880
     14          6           0        0.608237    0.509193    0.129886
     15          6           0        1.636068    0.275249   -0.985466
     16          6           0        3.029106    0.066125   -0.429227
     17          6           0        3.415934   -1.182438    0.080936
     18          6           0        4.690182   -1.373934    0.614968
     19          6           0        5.604436   -0.316708    0.648528
     20          6           0        5.232023    0.929805    0.144197
     21          6           0        3.954929    1.116731   -0.389722
     22          1           0       -3.980503   -1.609264    1.754355
     23          1           0       -4.071933   -2.762403    0.396413
     24          1           0       -3.858016   -1.021664    0.090820
     25          1           0       -2.125961   -2.739142    2.791668
     26          1           0       -0.622510   -3.015063    1.886710
     27          1           0       -2.066937   -4.006666    1.543611
     28          1           0       -2.182139   -0.212888   -1.672014
     29          1           0       -1.348751    1.024108    1.853826
     30          1           0       -2.772583    0.786827    0.785510
     31          1           0       -0.053540    2.486063   -1.548290
     32          1           0       -1.714520    1.980410   -1.992120
     33          1           0        0.622326   -0.339434    0.817160
     34          1           0        0.888163    1.390576    0.712826
     35          1           0        1.644881    1.133150   -1.667789
     36          1           0        1.325941   -0.598943   -1.560331
     37          1           0        2.709749   -2.007145    0.054788
     38          1           0        4.971538   -2.348945    1.001494
     39          1           0        6.597394   -0.466233    1.060950
     40          1           0        5.935147    1.756197    0.161357
     41          1           0        3.673020    2.089036   -0.784577
 ---------------------------------------------------------------------

 SCF Done:  E(RB3LYP) =  -1714.06498113     A.U. after   11 cycles

 The electronic state is 1-A.
 Alpha  occ. eigenvalues --  -89.14408 -89.10128 -19.16051 -19.15977 -19.15915
 Alpha  occ. eigenvalues --  -19.15710 -14.38473 -14.38180 -10.28056 -10.23577
 Alpha  occ. eigenvalues --  -10.23161 -10.22504 -10.22054 -10.19847 -10.19695
 Alpha  occ. eigenvalues --  -10.18953 -10.18939 -10.18884 -10.18819 -10.18770
 Alpha  occ. eigenvalues --  -10.18621  -8.16612  -8.13211  -6.13077  -6.13042
 Alpha  occ. eigenvalues --   -6.13027  -6.09659  -6.09561  -6.09464  -1.13676
 Alpha  occ. eigenvalues --   -1.11002  -1.01909  -1.00732  -0.95783  -0.94160
 Alpha  occ. eigenvalues --   -0.86278  -0.85480  -0.79370  -0.74278  -0.74119
 Alpha  occ. eigenvalues --   -0.73113  -0.72626  -0.71469  -0.67457  -0.63620
 Alpha  occ. eigenvalues --   -0.60388  -0.59740  -0.58236  -0.57395  -0.55170
 Alpha  occ. eigenvalues --   -0.53639  -0.52066  -0.51017  -0.50480  -0.49238
 Alpha  occ. eigenvalues --   -0.48720  -0.47655  -0.46558  -0.46064  -0.45828
 Alpha  occ. eigenvalues --   -0.44873  -0.44719  -0.44274  -0.42752  -0.42219
 Alpha  occ. eigenvalues --   -0.41752  -0.41616  -0.41051  -0.40586  -0.39067
 Alpha  occ. eigenvalues --   -0.38642  -0.37320  -0.36572  -0.35470  -0.35345
 Alpha  occ. eigenvalues --   -0.34883  -0.33829  -0.33610  -0.32900  -0.32779
 Alpha  occ. eigenvalues --   -0.32637  -0.31780  -0.31236  -0.30923  -0.28616
 Alpha  occ. eigenvalues --   -0.26211  -0.25140  -0.24319
 Alpha virt. eigenvalues --   -0.00273  -0.00144   0.03080   0.04000   0.04312
 Alpha virt. eigenvalues --    0.05174   0.05691   0.07258   0.07574   0.08477
 Alpha virt. eigenvalues --    0.09737   0.10364   0.11021   0.11697   0.12457

 Mulliken charges:
               1
     1  C   -0.331461
     2  N   -0.532067
     3  C   -0.322090
     4  S    1.328440
     5  O   -0.574045
     6  O   -0.563021
     7  N   -0.724290
     8  C    0.177497
     9  C   -0.484527
    10  S    1.108706
    11  O   -0.554494
    12  O   -0.569388
    13  C   -0.500951
    14  C   -0.292117
    15  C   -0.353161
    16  C    0.149908
    17  C   -0.198871
    18  C   -0.151207
    19  C   -0.152239
    20  C   -0.149641
    21  C   -0.201574
    22  H    0.193953
    23  H    0.181190
    24  H    0.183004
    25  H    0.186404
    26  H    0.199343
    27  H    0.172146
    28  H    0.410038
    29  H    0.236838
    30  H    0.230122
    31  H    0.239893
    32  H    0.235280
    33  H    0.186544
    34  H    0.169486
    35  H    0.152439
    36  H    0.176214
    37  H    0.152006
    38  H    0.147884
    39  H    0.147225
    40  H    0.148090
    41  H    0.142496
 Sum of Mulliken charges =   0.00000

 Dipole moment (field-independent basis, Debye):
    X=             -2.5274    Y=             -2.7330    Z=              1.5881  Tot=              4.0471
 Quadrupole moment (field-independent basis, Debye-Ang):
   XX=           -130.2303   YY=           -168.3744   ZZ=           -135.1170
   XY=             16.0197   XZ=             -3.7263   YZ=            -23.8315

 Normal termination of Gaussian 09 at Thu Oct  1 22:23:16 2020.
