 Gaussian 09, Revision D.01,

 -----------------
 #p b3lyp/6-31G(d)
 -----------------

 -----------------
 SM40.n.25.pdb.xyz
 -----------------
 Symbolic Z-matrix:
 Charge =  0 Multiplicity = 1

 SCF Done:  E(RB3LYP) =  -1714.03879835     A.U. after   15 cycles
 Normal termination of Gaussian 09 at Fri Oct  2 02:29:55 2020.
 Gaussian 09:  AM64L-G09RevD.01 24-Apr-2013

 ----------------------------------------------------------------------
 #p b3lyp/6-31G(d) scrf=(iefpcm,read,solvent=Water) geom=allcheck guess
 =read
 ----------------------------------------------------------------------

 Structure from the checkpoint file:  "SM40.n.25.pdb.xyz.mst.n.w.chk"
 -----------------
 SM40.n.25.pdb.xyz
 -----------------
 Charge =  0 Multiplicity = 1

                         Standard orientation:
 ---------------------------------------------------------------------
 Center     Atomic      Atomic             Coordinates (Angstroms)
 Number     Number       Type             X           Y           Z
 ---------------------------------------------------------------------
      1          6           0       -3.601616   -2.869842    1.040837
      2          7           0       -3.249544   -2.159616   -0.198667
      3          6           0       -4.236944   -1.156260   -0.618896
      4         16           0       -1.655189   -1.693502   -0.348019
      5          8           0       -0.853635   -2.851223    0.068806
      6          8           0       -1.485991   -1.131826   -1.691393
      7          7           0       -1.459959   -0.410412    0.729993
      8          6           0       -0.582114    0.746581    0.466888
      9          6           0       -0.989150    1.880216    1.470475
     10         16           0       -1.049857    3.073294    0.094653
     11          8           0       -2.332735    3.791060   -0.032848
     12          8           0        0.200265    3.854770   -0.007870
     13          6           0       -0.962452    1.512327   -0.842393
     14          6           0        0.926921    0.474356    0.594638
     15          6           0        1.557724   -0.455707   -0.452637
     16          6           0        3.051507   -0.575294   -0.253678
     17          6           0        3.588130   -1.643871    0.475342
     18          6           0        4.963312   -1.750337    0.686622
     19          6           0        5.828780   -0.785251    0.169155
     20          6           0        5.306974    0.284952   -0.561821
     21          6           0        3.930545    0.386267   -0.769952
     22          1           0       -4.547294   -3.384790    0.863332
     23          1           0       -3.726133   -2.185747    1.889921
     24          1           0       -2.833478   -3.606718    1.267147
     25          1           0       -5.193917   -1.668077   -0.731597
     26          1           0       -3.943348   -0.741742   -1.581483
     27          1           0       -4.344035   -0.349125    0.116331
     28          1           0       -1.320274   -0.779170    1.673728
     29          1           0       -0.268234    2.124111    2.249716
     30          1           0       -1.989800    1.740702    1.879973
     31          1           0       -0.227521    1.518709   -1.645338
     32          1           0       -1.949447    1.262337   -1.224009
     33          1           0        1.108607    0.069306    1.596300
     34          1           0        1.434892    1.442820    0.558598
     35          1           0        1.350964   -0.072566   -1.458460
     36          1           0        1.103871   -1.447183   -0.382646
     37          1           0        2.920003   -2.400658    0.875573
     38          1           0        5.357253   -2.589078    1.252425
     39          1           0        6.898642   -0.867374    0.330229
     40          1           0        5.970770    1.038185   -0.972758
     41          1           0        3.532792    1.218509   -1.343451
 ---------------------------------------------------------------------

 SCF Done:  E(RB3LYP) =  -1714.06605213     A.U. after   11 cycles

 The electronic state is 1-A.
 Alpha  occ. eigenvalues --  -89.14314 -89.09969 -19.16097 -19.15995 -19.15802
 Alpha  occ. eigenvalues --  -19.15590 -14.38218 -14.37796 -10.27866 -10.23165
 Alpha  occ. eigenvalues --  -10.23140 -10.22212 -10.22093 -10.20014 -10.19800
 Alpha  occ. eigenvalues --  -10.19060 -10.19055 -10.19025 -10.18897 -10.18872
 Alpha  occ. eigenvalues --  -10.18829  -8.16528  -8.13054  -6.12994  -6.12965
 Alpha  occ. eigenvalues --   -6.12934  -6.09504  -6.09403  -6.09304  -1.13648
 Alpha  occ. eigenvalues --   -1.10888  -1.02014  -1.00607  -0.95298  -0.94209
 Alpha  occ. eigenvalues --   -0.86116  -0.85595  -0.79460  -0.74404  -0.74146
 Alpha  occ. eigenvalues --   -0.72835  -0.72632  -0.71534  -0.67282  -0.63162
 Alpha  occ. eigenvalues --   -0.60506  -0.60260  -0.58093  -0.57423  -0.54840
 Alpha  occ. eigenvalues --   -0.52605  -0.52069  -0.51337  -0.50549  -0.49215
 Alpha  occ. eigenvalues --   -0.48549  -0.47350  -0.46870  -0.46353  -0.45611
 Alpha  occ. eigenvalues --   -0.44839  -0.44725  -0.44182  -0.42753  -0.41870
 Alpha  occ. eigenvalues --   -0.41718  -0.41441  -0.40963  -0.40419  -0.39037
 Alpha  occ. eigenvalues --   -0.39000  -0.37914  -0.36287  -0.35837  -0.34793
 Alpha  occ. eigenvalues --   -0.34526  -0.33968  -0.33828  -0.33572  -0.32948
 Alpha  occ. eigenvalues --   -0.32782  -0.31793  -0.31116  -0.29852  -0.28508
 Alpha  occ. eigenvalues --   -0.26217  -0.25244  -0.24434
 Alpha virt. eigenvalues --   -0.00379  -0.00241   0.02750   0.04025   0.04584
 Alpha virt. eigenvalues --    0.05537   0.06742   0.07924   0.08455   0.08912
 Alpha virt. eigenvalues --    0.09679   0.10457   0.10596   0.11099   0.12274

 Mulliken charges:
               1
     1  C   -0.336330
     2  N   -0.512808
     3  C   -0.334195
     4  S    1.382751
     5  O   -0.574521
     6  O   -0.599539
     7  N   -0.747513
     8  C    0.161832
     9  C   -0.484576
    10  S    1.104181
    11  O   -0.555266
    12  O   -0.570650
    13  C   -0.477782
    14  C   -0.272432
    15  C   -0.389125
    16  C    0.160526
    17  C   -0.198064
    18  C   -0.149864
    19  C   -0.151339
    20  C   -0.150571
    21  C   -0.194857
    22  H    0.191595
    23  H    0.172440
    24  H    0.199681
    25  H    0.191130
    26  H    0.196795
    27  H    0.172321
    28  H    0.410221
    29  H    0.236982
    30  H    0.234176
    31  H    0.234358
    32  H    0.233452
    33  H    0.168867
    34  H    0.169798
    35  H    0.162550
    36  H    0.182255
    37  H    0.143457
    38  H    0.148913
    39  H    0.148292
    40  H    0.149361
    41  H    0.143498
 Sum of Mulliken charges =   0.00000

 Dipole moment (field-independent basis, Debye):
    X=             -3.1154    Y=             -4.1416    Z=              5.6169  Tot=              7.6425
 Quadrupole moment (field-independent basis, Debye-Ang):
   XX=           -118.3585   YY=           -174.9051   ZZ=           -131.2886
   XY=             13.9952   XZ=             -7.2962   YZ=             -7.6069

 Normal termination of Gaussian 09 at Fri Oct  2 02:34:53 2020.
