 Gaussian 09, Revision D.01,

 -----------------
 #p b3lyp/6-31G(d)
 -----------------

 -----------------
 SM40.n.23.pdb.xyz
 -----------------
 Symbolic Z-matrix:
 Charge =  0 Multiplicity = 1

 SCF Done:  E(RB3LYP) =  -1714.04031099     A.U. after   16 cycles
 Normal termination of Gaussian 09 at Fri Oct  2 02:44:17 2020.
 Gaussian 09:  AM64L-G09RevD.01 24-Apr-2013

 ----------------------------------------------------------------------
 #p b3lyp/6-31G(d) scrf=(iefpcm,read,solvent=Water) geom=allcheck guess
 =read
 ----------------------------------------------------------------------

 Structure from the checkpoint file:  "SM40.n.23.pdb.xyz.mst.n.w.chk"
 -----------------
 SM40.n.23.pdb.xyz
 -----------------
 Charge =  0 Multiplicity = 1

                         Standard orientation:
 ---------------------------------------------------------------------
 Center     Atomic      Atomic             Coordinates (Angstroms)
 Number     Number       Type             X           Y           Z
 ---------------------------------------------------------------------
      1          6           0        2.104736    3.550181    0.512252
      2          7           0        1.089675    2.506466    0.745092
      3          6           0        0.029076    2.913959    1.681570
      4         16           0        0.524197    1.769052   -0.655434
      5          8           0       -0.600494    2.487715   -1.273253
      6          8           0        1.716586    1.494655   -1.471240
      7          7           0       -0.153008    0.379797   -0.020898
      8          6           0        0.605718   -0.853403    0.233594
      9          6           0        1.896514   -0.614340    1.083857
     10         16           0        2.840138   -1.694935   -0.040973
     11          8           0        4.030003   -1.058445   -0.637753
     12          8           0        2.978649   -3.062270    0.504149
     13          6           0        1.309877   -1.506508   -1.013999
     14          6           0       -0.309174   -1.853672    0.962679
     15          6           0       -1.527481   -2.392071    0.193403
     16          6           0       -2.704398   -1.446720    0.061974
     17          6           0       -3.231058   -1.123711   -1.196860
     18          6           0       -4.330985   -0.269920   -1.315871
     19          6           0       -4.923664    0.271993   -0.176553
     20          6           0       -4.410187   -0.044255    1.084622
     21          6           0       -3.312975   -0.895480    1.200161
     22          1           0        2.555971    3.780400    1.478507
     23          1           0        1.673294    4.468336    0.095398
     24          1           0        2.872334    3.166528   -0.156811
     25          1           0        0.506865    3.137378    2.637596
     26          1           0       -0.666139    2.085800    1.817956
     27          1           0       -0.512329    3.800149    1.333676
     28          1           0       -1.042457    0.218409   -0.494893
     29          1           0        1.858663   -0.973300    2.112431
     30          1           0        2.274182    0.406556    1.043782
     31          1           0        0.901495   -2.451480   -1.372559
     32          1           0        1.478497   -0.804729   -1.828578
     33          1           0       -0.635580   -1.392387    1.899340
     34          1           0        0.320952   -2.704742    1.234625
     35          1           0       -1.857705   -3.291706    0.727063
     36          1           0       -1.222404   -2.732512   -0.802316
     37          1           0       -2.775823   -1.547316   -2.087118
     38          1           0       -4.723647   -0.031751   -2.299122
     39          1           0       -5.778496    0.935063   -0.267489
     40          1           0       -4.867385    0.370205    1.977430
     41          1           0       -2.920253   -1.138187    2.184043
 ---------------------------------------------------------------------

 SCF Done:  E(RB3LYP) =  -1714.06311111     A.U. after   11 cycles

 The electronic state is 1-A.
 Alpha  occ. eigenvalues --  -89.14482 -89.09870 -19.16232 -19.16123 -19.15598
 Alpha  occ. eigenvalues --  -19.15441 -14.38395 -14.38261 -10.27971 -10.22895
 Alpha  occ. eigenvalues --  -10.22706 -10.22128 -10.22043 -10.20445 -10.20309
 Alpha  occ. eigenvalues --  -10.19830 -10.19384 -10.19378 -10.19320 -10.19228
 Alpha  occ. eigenvalues --  -10.19195  -8.16713  -8.12941  -6.13201  -6.13143
 Alpha  occ. eigenvalues --   -6.13094  -6.09390  -6.09292  -6.09195  -1.13696
 Alpha  occ. eigenvalues --   -1.10701  -1.01877  -1.00424  -0.95850  -0.94284
 Alpha  occ. eigenvalues --   -0.86265  -0.85934  -0.79806  -0.74852  -0.74595
 Alpha  occ. eigenvalues --   -0.72790  -0.72506  -0.71627  -0.67633  -0.63089
 Alpha  occ. eigenvalues --   -0.60832  -0.60736  -0.58350  -0.57248  -0.54512
 Alpha  occ. eigenvalues --   -0.53611  -0.51971  -0.51596  -0.50126  -0.49444
 Alpha  occ. eigenvalues --   -0.48835  -0.47119  -0.46603  -0.45982  -0.45654
 Alpha  occ. eigenvalues --   -0.45140  -0.44731  -0.44000  -0.43847  -0.42454
 Alpha  occ. eigenvalues --   -0.41989  -0.41818  -0.40908  -0.40021  -0.39005
 Alpha  occ. eigenvalues --   -0.38782  -0.38567  -0.36448  -0.36249  -0.35689
 Alpha  occ. eigenvalues --   -0.34484  -0.34031  -0.33891  -0.33519  -0.33123
 Alpha  occ. eigenvalues --   -0.32629  -0.31991  -0.31024  -0.30319  -0.28164
 Alpha  occ. eigenvalues --   -0.26316  -0.25604  -0.24810
 Alpha virt. eigenvalues --   -0.01071  -0.00659   0.03173   0.04531   0.05133
 Alpha virt. eigenvalues --    0.05679   0.06075   0.07003   0.07794   0.08710
 Alpha virt. eigenvalues --    0.09446   0.10116   0.10804   0.11249   0.12333

 Mulliken charges:
               1
     1  C   -0.328108
     2  N   -0.529907
     3  C   -0.327553
     4  S    1.339445
     5  O   -0.563793
     6  O   -0.581564
     7  N   -0.736480
     8  C    0.180263
     9  C   -0.502838
    10  S    1.112262
    11  O   -0.556721
    12  O   -0.574433
    13  C   -0.499330
    14  C   -0.294605
    15  C   -0.367737
    16  C    0.127706
    17  C   -0.212831
    18  C   -0.137627
    19  C   -0.149034
    20  C   -0.145030
    21  C   -0.181750
    22  H    0.190709
    23  H    0.173052
    24  H    0.199223
    25  H    0.188867
    26  H    0.195244
    27  H    0.174194
    28  H    0.383031
    29  H    0.235072
    30  H    0.247306
    31  H    0.232763
    32  H    0.243877
    33  H    0.179886
    34  H    0.178207
    35  H    0.182834
    36  H    0.165265
    37  H    0.151467
    38  H    0.153193
    39  H    0.151911
    40  H    0.152786
    41  H    0.150779
 Sum of Mulliken charges =   0.00000

 Dipole moment (field-independent basis, Debye):
    X=             -6.7737    Y=              1.7784    Z=              5.0728  Tot=              8.6474
 Quadrupole moment (field-independent basis, Debye-Ang):
   XX=           -161.9299   YY=           -139.2561   ZZ=           -130.8510
   XY=             18.2809   XZ=              6.4196   YZ=             15.0093

 Normal termination of Gaussian 09 at Fri Oct  2 02:49:35 2020.
