 Gaussian 09, Revision D.01,

 -----------------
 #p b3lyp/6-31G(d)
 -----------------

 -----------------
 SM40.n.16.pdb.xyz
 -----------------
 Symbolic Z-matrix:
 Charge =  0 Multiplicity = 1

 SCF Done:  E(RB3LYP) =  -1714.04078066     A.U. after   15 cycles
 Normal termination of Gaussian 09 at Thu Oct  1 22:09:01 2020.
 Gaussian 09:  AM64L-G09RevD.01 24-Apr-2013

 ----------------------------------------------------------------------
 #p b3lyp/6-31G(d) scrf=(iefpcm,read,solvent=Water) geom=allcheck guess
 =read
 ----------------------------------------------------------------------

 Structure from the checkpoint file:  "SM40.n.16.pdb.xyz.mst.n.w.chk"
 -----------------
 SM40.n.16.pdb.xyz
 -----------------
 Charge =  0 Multiplicity = 1

                         Standard orientation:
 ---------------------------------------------------------------------
 Center     Atomic      Atomic             Coordinates (Angstroms)
 Number     Number       Type             X           Y           Z
 ---------------------------------------------------------------------
      1          6           0       -4.034452   -1.544453    1.503516
      2          7           0       -2.643509   -1.571199    1.013904
      3          6           0       -1.876510   -2.736032    1.483290
      4         16           0       -2.487813   -1.259881   -0.629338
      5          8           0       -2.622029   -2.464061   -1.463462
      6          8           0       -3.368589   -0.114294   -0.903292
      7          7           0       -0.868381   -0.860149   -0.716880
      8          6           0       -0.342728    0.489056   -0.463796
      9          6           0       -0.806362    1.101029    0.898092
     10         16           0       -1.166294    2.682991    0.065219
     11          8           0       -2.554118    3.154634    0.232522
     12          8           0       -0.070867    3.658038    0.250716
     13          6           0       -0.897740    1.628166   -1.395374
     14          6           0        1.188113    0.410182   -0.574191
     15          6           0        1.854325   -0.574410    0.395471
     16          6           0        3.360643   -0.567368    0.258752
     17          6           0        4.144002    0.349297    0.972472
     18          6           0        5.531520    0.374352    0.822188
     19          6           0        6.160490   -0.519713   -0.046956
     20          6           0        5.390286   -1.439459   -0.762245
     21          6           0        4.003168   -1.461194   -0.608111
     22          1           0       -3.989133   -1.524269    2.594105
     23          1           0       -4.606033   -2.425805    1.188232
     24          1           0       -4.525840   -0.639939    1.149893
     25          1           0       -1.856576   -2.695539    2.573556
     26          1           0       -0.856134   -2.668871    1.108392
     27          1           0       -2.326320   -3.683430    1.166309
     28          1           0       -0.478536   -1.284513   -1.559081
     29          1           0       -0.043682    1.182300    1.671565
     30          1           0       -1.716420    0.656246    1.298239
     31          1           0       -0.197452    2.047205   -2.118781
     32          1           0       -1.855095    1.383768   -1.851616
     33          1           0        1.584286    1.417702   -0.409435
     34          1           0        1.445032    0.142973   -1.604284
     35          1           0        1.468108   -1.579806    0.204212
     36          1           0        1.576699   -0.316603    1.424653
     37          1           0        3.663506    1.045499    1.654683
     38          1           0        6.121908    1.089053    1.387233
     39          1           0        7.238458   -0.503005   -0.161755
     40          1           0        5.868750   -2.142658   -1.436913
     41          1           0        3.409698   -2.181899   -1.162985
 ---------------------------------------------------------------------

 SCF Done:  E(RB3LYP) =  -1714.06822405     A.U. after   11 cycles

 The electronic state is 1-A.
 Alpha  occ. eigenvalues --  -89.14383 -89.09780 -19.16121 -19.15998 -19.15521
 Alpha  occ. eigenvalues --  -19.15372 -14.38239 -14.38132 -10.27802 -10.22868
 Alpha  occ. eigenvalues --  -10.22538 -10.22116 -10.22028 -10.20385 -10.19902
 Alpha  occ. eigenvalues --  -10.19379 -10.19097 -10.19087 -10.18944 -10.18934
 Alpha  occ. eigenvalues --  -10.18917  -8.16611  -8.12856  -6.13097  -6.13042
 Alpha  occ. eigenvalues --   -6.12992  -6.09305  -6.09207  -6.09108  -1.13563
 Alpha  occ. eigenvalues --   -1.10646  -1.01740  -1.00363  -0.95692  -0.94218
 Alpha  occ. eigenvalues --   -0.86121  -0.85580  -0.79670  -0.74643  -0.74445
 Alpha  occ. eigenvalues --   -0.72722  -0.72453  -0.71255  -0.67371  -0.62721
 Alpha  occ. eigenvalues --   -0.60707  -0.60438  -0.58135  -0.57273  -0.54340
 Alpha  occ. eigenvalues --   -0.53150  -0.51908  -0.51453  -0.50331  -0.49057
 Alpha  occ. eigenvalues --   -0.48710  -0.47376  -0.46607  -0.45903  -0.45672
 Alpha  occ. eigenvalues --   -0.45053  -0.44508  -0.43939  -0.42839  -0.41873
 Alpha  occ. eigenvalues --   -0.41761  -0.41750  -0.40897  -0.40779  -0.39021
 Alpha  occ. eigenvalues --   -0.38637  -0.38126  -0.35983  -0.35874  -0.35356
 Alpha  occ. eigenvalues --   -0.34694  -0.33748  -0.33700  -0.33377  -0.33069
 Alpha  occ. eigenvalues --   -0.32569  -0.31914  -0.30897  -0.30272  -0.28002
 Alpha  occ. eigenvalues --   -0.26278  -0.25291  -0.24515
 Alpha virt. eigenvalues --   -0.00412  -0.00344   0.03351   0.04565   0.05289
 Alpha virt. eigenvalues --    0.05691   0.06109   0.06960   0.07437   0.08607
 Alpha virt. eigenvalues --    0.09338   0.10114   0.10544   0.11307   0.12219

 Mulliken charges:
               1
     1  C   -0.328185
     2  N   -0.529255
     3  C   -0.331156
     4  S    1.338347
     5  O   -0.564028
     6  O   -0.581577
     7  N   -0.737727
     8  C    0.188447
     9  C   -0.504696
    10  S    1.108251
    11  O   -0.557992
    12  O   -0.573726
    13  C   -0.489958
    14  C   -0.304758
    15  C   -0.363995
    16  C    0.160867
    17  C   -0.196187
    18  C   -0.149813
    19  C   -0.150953
    20  C   -0.149331
    21  C   -0.197863
    22  H    0.190139
    23  H    0.172863
    24  H    0.199573
    25  H    0.188960
    26  H    0.198946
    27  H    0.174091
    28  H    0.413609
    29  H    0.232218
    30  H    0.247303
    31  H    0.230542
    32  H    0.242432
    33  H    0.176102
    34  H    0.176512
    35  H    0.173786
    36  H    0.161503
    37  H    0.144388
    38  H    0.149599
    39  H    0.148892
    40  H    0.149530
    41  H    0.144300
 Sum of Mulliken charges =   0.00000

 Dipole moment (field-independent basis, Debye):
    X=              4.4205    Y=             -6.7801    Z=              1.8460  Tot=              8.3017
 Quadrupole moment (field-independent basis, Debye-Ang):
   XX=           -147.0459   YY=           -164.4865   ZZ=           -128.1513
   XY=             10.0239   XZ=            -14.7649   YZ=             -9.4821

 Normal termination of Gaussian 09 at Thu Oct  1 22:14:01 2020.
