 Gaussian 09, Revision D.01,

 -----------------
 #p b3lyp/6-31G(d)
 -----------------

 ----------------
 SM40.n.8.pdb.xyz
 ----------------
 Symbolic Z-matrix:
 Charge =  0 Multiplicity = 1

 SCF Done:  E(RB3LYP) =  -1714.03195450     A.U. after   16 cycles
 Normal termination of Gaussian 09 at Thu Oct  1 22:18:14 2020.
 Gaussian 09:  AM64L-G09RevD.01 24-Apr-2013

 ----------------------------------------------------------------------
 #p b3lyp/6-31G(d) scrf=(iefpcm,read,solvent=Water) geom=allcheck guess
 =read
 ----------------------------------------------------------------------

 Structure from the checkpoint file:  "SM40.n.8.pdb.xyz.mst.n.w.chk"
 ----------------
 SM40.n.8.pdb.xyz
 ----------------
 Charge =  0 Multiplicity = 1

                         Standard orientation:
 ---------------------------------------------------------------------
 Center     Atomic      Atomic             Coordinates (Angstroms)
 Number     Number       Type             X           Y           Z
 ---------------------------------------------------------------------
      1          6           0       -0.041782    3.213222   -0.982817
      2          7           0       -0.699541    2.634880    0.198093
      3          6           0       -0.833505    3.588354    1.315372
      4         16           0       -2.106879    1.770996   -0.155363
      5          8           0       -2.716865    1.455320    1.140130
      6          8           0       -2.914239    2.450382   -1.178069
      7          7           0       -1.639962    0.351462   -0.886921
      8          6           0       -0.758387   -0.695705   -0.315779
      9          6           0       -1.061615   -1.985878   -1.148416
     10         16           0       -2.162795   -2.585563    0.176617
     11          8           0       -3.584300   -2.299898   -0.104942
     12          8           0       -1.813290   -3.924437    0.688977
     13          6           0       -1.334611   -1.210059    1.045046
     14          6           0        0.722196   -0.270797   -0.314382
     15          6           0        1.730257   -1.282844    0.257603
     16          6           0        3.150015   -0.766366    0.156607
     17          6           0        3.718031   -0.028561    1.204054
     18          6           0        5.016234    0.475124    1.104701
     19          6           0        5.770521    0.246179   -0.048291
     20          6           0        5.216127   -0.490048   -1.098727
     21          6           0        3.917307   -0.990226   -0.994650
     22          1           0        0.946830    3.554791   -0.672098
     23          1           0       -0.601835    4.058188   -1.399479
     24          1           0        0.086991    2.452291   -1.753050
     25          1           0        0.175073    3.915653    1.577062
     26          1           0       -1.280447    3.085158    2.170241
     27          1           0       -1.432670    4.467055    1.047414
     28          1           0       -1.498917    0.499598   -1.888220
     29          1           0       -0.206369   -2.654715   -1.241531
     30          1           0       -1.549748   -1.842028   -2.110495
     31          1           0       -0.571678   -1.615091    1.710734
     32          1           0       -2.007226   -0.534868    1.568400
     33          1           0        0.795572    0.666406    0.242420
     34          1           0        0.994645   -0.046116   -1.351510
     35          1           0        1.656325   -2.237578   -0.274192
     36          1           0        1.499413   -1.482497    1.307204
     37          1           0        3.138070    0.146800    2.105502
     38          1           0        5.439608    1.040574    1.929489
     39          1           0        6.780800    0.634024   -0.126611
     40          1           0        5.796281   -0.678116   -1.996643
     41          1           0        3.495401   -1.566146   -1.813589
 ---------------------------------------------------------------------

 SCF Done:  E(RB3LYP) =  -1714.06360021     A.U. after   11 cycles

 The electronic state is 1-A.
 Alpha  occ. eigenvalues --  -89.14432 -89.09910 -19.16078 -19.15849 -19.15652
 Alpha  occ. eigenvalues --  -19.15415 -14.38331 -14.38009 -10.28117 -10.23330
 Alpha  occ. eigenvalues --  -10.22868 -10.22321 -10.22017 -10.20028 -10.20024
 Alpha  occ. eigenvalues --  -10.19737 -10.19141 -10.19131 -10.18997 -10.18986
 Alpha  occ. eigenvalues --  -10.18979  -8.16612  -8.12970  -6.13089  -6.13037
 Alpha  occ. eigenvalues --   -6.13026  -6.09417  -6.09321  -6.09226  -1.13591
 Alpha  occ. eigenvalues --   -1.10741  -1.01835  -1.00435  -0.95523  -0.94121
 Alpha  occ. eigenvalues --   -0.86153  -0.85543  -0.79634  -0.74488  -0.74294
 Alpha  occ. eigenvalues --   -0.72860  -0.72613  -0.71322  -0.67702  -0.62737
 Alpha  occ. eigenvalues --   -0.60664  -0.60593  -0.58499  -0.57371  -0.55244
 Alpha  occ. eigenvalues --   -0.53126  -0.51732  -0.51025  -0.50298  -0.49620
 Alpha  occ. eigenvalues --   -0.48760  -0.47310  -0.46858  -0.46504  -0.45521
 Alpha  occ. eigenvalues --   -0.45108  -0.44151  -0.43806  -0.43130  -0.42221
 Alpha  occ. eigenvalues --   -0.41906  -0.41619  -0.40905  -0.40680  -0.38954
 Alpha  occ. eigenvalues --   -0.38879  -0.37968  -0.35981  -0.35730  -0.35530
 Alpha  occ. eigenvalues --   -0.34261  -0.34219  -0.33674  -0.33310  -0.32936
 Alpha  occ. eigenvalues --   -0.32653  -0.31924  -0.30989  -0.29667  -0.29297
 Alpha  occ. eigenvalues --   -0.25887  -0.25318  -0.24543
 Alpha virt. eigenvalues --   -0.00459  -0.00402   0.03211   0.03560   0.04916
 Alpha virt. eigenvalues --    0.05720   0.06102   0.06875   0.08131   0.08848
 Alpha virt. eigenvalues --    0.09423   0.09836   0.10480   0.11008   0.11912

 Mulliken charges:
               1
     1  C   -0.329308
     2  N   -0.520773
     3  C   -0.322068
     4  S    1.308672
     5  O   -0.576080
     6  O   -0.564130
     7  N   -0.718881
     8  C    0.156414
     9  C   -0.492023
    10  S    1.108489
    11  O   -0.561639
    12  O   -0.558496
    13  C   -0.504874
    14  C   -0.279681
    15  C   -0.379325
    16  C    0.157666
    17  C   -0.194757
    18  C   -0.149605
    19  C   -0.150855
    20  C   -0.149876
    21  C   -0.194919
    22  H    0.191586
    23  H    0.178373
    24  H    0.182567
    25  H    0.186165
    26  H    0.197721
    27  H    0.170632
    28  H    0.416989
    29  H    0.232601
    30  H    0.239666
    31  H    0.228888
    32  H    0.261501
    33  H    0.190299
    34  H    0.166633
    35  H    0.165466
    36  H    0.167313
    37  H    0.145125
    38  H    0.149979
    39  H    0.149138
    40  H    0.150067
    41  H    0.145340
 Sum of Mulliken charges =   0.00000

 Dipole moment (field-independent basis, Debye):
    X=             10.7515    Y=              4.7907    Z=             -2.5654  Tot=             12.0468
 Quadrupole moment (field-independent basis, Debye-Ang):
   XX=           -174.2990   YY=           -150.9888   ZZ=           -126.2627
   XY=             -3.3603   XZ=             -0.0893   YZ=             10.9790

 Normal termination of Gaussian 09 at Thu Oct  1 22:23:16 2020.
