 Gaussian 09, Revision D.01,

 -----------------
 #p b3lyp/6-31G(d)
 -----------------

 --------------------
 SM40_38o.n.2.pdb.xyz
 --------------------
 Symbolic Z-matrix:
 Charge =  0 Multiplicity = 1

 SCF Done:  E(RB3LYP) =  -1714.04198609     A.U. after   15 cycles
 Normal termination of Gaussian 09 at Mon Sep 21 21:01:02 2020.
 Gaussian 09:  AM64L-G09RevD.01 24-Apr-2013

 ----------------------------------------------------------------------
 #p b3lyp/6-31G(d) scrf=(iefpcm,read,solvent=n-Octanol) geom=allcheck g
 uess=read
 ----------------------------------------------------------------------

 Structure from the checkpoint file:  "SM40_38o.n.2.pdb.xyz.mst.n.o.chk"
 --------------------
 SM40_38o.n.2.pdb.xyz
 --------------------
 Charge =  0 Multiplicity = 1

                         Standard orientation:
 ---------------------------------------------------------------------
 Center     Atomic      Atomic             Coordinates (Angstroms)
 Number     Number       Type             X           Y           Z
 ---------------------------------------------------------------------
      1         16           0       -1.789347   -1.808619   -0.395415
      2          7           0       -1.307027   -0.354573   -1.088598
      3          6           0       -0.352785    0.563404   -0.421183
      4          6           0       -0.935181    1.016899    0.955850
      5         16           0       -1.510635    2.584007    0.214798
      6          6           0       -0.483785    1.939723   -1.154342
      7          8           0       -2.946777    2.551939   -0.108682
      8          8           0       -0.943021    3.780125    0.855440
      9          6           0        1.077418   -0.011952   -0.394662
     10          6           0        2.158527    0.874773    0.249407
     11          6           0        3.522323    0.222021    0.192610
     12          6           0        4.409292    0.513244   -0.849845
     13          6           0        5.656166   -0.108383   -0.923236
     14          6           0        6.034215   -1.034689    0.050264
     15          6           0        5.158607   -1.331625    1.095416
     16          6           0        3.913852   -0.707993    1.164871
     17          8           0       -0.828046   -2.301883    0.596426
     18          8           0       -2.151995   -2.655470   -1.537450
     19          1           0       -1.067265   -0.539892   -2.063700
     20          1           0       -0.175379    1.217504    1.709503
     21          1           0       -1.743160    0.402354    1.352150
     22          1           0        0.450456    2.497281   -1.212900
     23          1           0       -0.992147    1.922139   -2.116407
     24          1           0        1.365941   -0.224969   -1.430296
     25          1           0        1.033000   -0.973124    0.123763
     26          1           0        1.896650    1.079339    1.293556
     27          1           0        2.206026    1.842650   -0.260384
     28          1           0        4.120674    1.238014   -1.605511
     29          1           0        6.332297    0.132992   -1.736675
     30          1           0        7.004498   -1.517559   -0.003754
     31          1           0        5.446947   -2.045875    1.859342
     32          1           0        3.240051   -0.940184    1.984244
     33          7           0       -3.127848   -1.293313    0.490207
     34          6           0       -3.553236   -2.259026    1.518262
     35          1           0       -2.689162   -2.570941    2.099924
     36          1           0       -4.259116   -1.742261    2.170955
     37          1           0       -4.047185   -3.138498    1.088280
     38          6           0       -4.235016   -0.777733   -0.328930
     39          1           0       -4.728612   -1.568746   -0.905229
     40          1           0       -4.956526   -0.326487    0.354632
     41          1           0       -3.857829   -0.004400   -0.995653
 ---------------------------------------------------------------------

 SCF Done:  E(RB3LYP) =  -1714.07080317     A.U. after   11 cycles

 The electronic state is 1-A.
 Alpha  occ. eigenvalues --  -89.14114 -89.09778 -19.15889 -19.15770 -19.15383
 Alpha  occ. eigenvalues --  -19.15259 -14.38443 -14.38233 -10.28243 -10.23585
 Alpha  occ. eigenvalues --  -10.23096 -10.22456 -10.22018 -10.20318 -10.20223
 Alpha  occ. eigenvalues --  -10.20097 -10.19198 -10.19174 -10.19088 -10.19070
 Alpha  occ. eigenvalues --  -10.19037  -8.16360  -8.12831  -6.12851  -6.12784
 Alpha  occ. eigenvalues --   -6.12741  -6.09266  -6.09184  -6.09103  -1.13424
 Alpha  occ. eigenvalues --   -1.10703  -1.01669  -1.00426  -0.95760  -0.94339
 Alpha  occ. eigenvalues --   -0.86230  -0.85557  -0.79845  -0.74610  -0.74520
 Alpha  occ. eigenvalues --   -0.73247  -0.72835  -0.71392  -0.67600  -0.62876
 Alpha  occ. eigenvalues --   -0.60766  -0.60442  -0.58621  -0.57587  -0.54614
 Alpha  occ. eigenvalues --   -0.53592  -0.51842  -0.51269  -0.50353  -0.49851
 Alpha  occ. eigenvalues --   -0.48622  -0.47266  -0.46995  -0.46234  -0.45685
 Alpha  occ. eigenvalues --   -0.45126  -0.44651  -0.43926  -0.43092  -0.42175
 Alpha  occ. eigenvalues --   -0.42059  -0.41768  -0.41338  -0.40968  -0.39066
 Alpha  occ. eigenvalues --   -0.38997  -0.38153  -0.36882  -0.35639  -0.35488
 Alpha  occ. eigenvalues --   -0.34656  -0.34141  -0.33765  -0.33453  -0.32801
 Alpha  occ. eigenvalues --   -0.32396  -0.31704  -0.30805  -0.29528  -0.28681
 Alpha  occ. eigenvalues --   -0.26292  -0.25299  -0.24545
 Alpha virt. eigenvalues --   -0.00491  -0.00346   0.02932   0.03826   0.04755
 Alpha virt. eigenvalues --    0.05774   0.06087   0.06534   0.07534   0.08684
 Alpha virt. eigenvalues --    0.08947   0.09666   0.10162   0.10369   0.11996

 Mulliken charges:
               1
     1  S    1.338277
     2  N   -0.735340
     3  C    0.164687
     4  C   -0.509203
     5  S    1.114098
     6  C   -0.498746
     7  O   -0.537138
     8  O   -0.534755
     9  C   -0.282018
    10  C   -0.381895
    11  C    0.167162
    12  C   -0.187512
    13  C   -0.139086
    14  C   -0.139895
    15  C   -0.138956
    16  C   -0.184054
    17  O   -0.559560
    18  O   -0.543100
    19  H    0.385817
    20  H    0.218187
    21  H    0.253010
    22  H    0.220326
    23  H    0.227181
    24  H    0.156390
    25  H    0.197860
    26  H    0.160599
    27  H    0.155911
    28  H    0.133981
    29  H    0.141301
    30  H    0.140660
    31  H    0.141857
    32  H    0.135797
    33  N   -0.527953
    34  C   -0.331170
    35  H    0.201008
    36  H    0.183589
    37  H    0.168732
    38  C   -0.326655
    39  H    0.167129
    40  H    0.180034
    41  H    0.203444
 Sum of Mulliken charges =   0.00000

 Dipole moment (field-independent basis, Debye):
    X=              1.5621    Y=             -1.3774    Z=             -0.9621  Tot=              2.2942
 Quadrupole moment (field-independent basis, Debye-Ang):
   XX=           -128.7750   YY=           -168.2155   ZZ=           -129.4086
   XY=             10.3448   XZ=             -7.5752   YZ=            -14.6788

 Normal termination of Gaussian 09 at Mon Sep 21 21:05:48 2020.
