 Gaussian 09, Revision D.01,

 -----------------
 #p b3lyp/6-31G(d)
 -----------------

 ----------------
 SM40.n.4.pdb.xyz
 ----------------
 Symbolic Z-matrix:
 Charge =  0 Multiplicity = 1

 SCF Done:  E(RB3LYP) =  -1714.03727684     A.U. after   16 cycles
 Normal termination of Gaussian 09 at Thu Oct  1 22:18:50 2020.
 Gaussian 09:  AM64L-G09RevD.01 24-Apr-2013

 ----------------------------------------------------------------------
 #p b3lyp/6-31G(d) scrf=(iefpcm,read,solvent=Water) geom=allcheck guess
 =read
 ----------------------------------------------------------------------

 Structure from the checkpoint file:  "SM40.n.4.pdb.xyz.mst.n.w.chk"
 ----------------
 SM40.n.4.pdb.xyz
 ----------------
 Charge =  0 Multiplicity = 1

                         Standard orientation:
 ---------------------------------------------------------------------
 Center     Atomic      Atomic             Coordinates (Angstroms)
 Number     Number       Type             X           Y           Z
 ---------------------------------------------------------------------
      1          6           0        3.320147   -0.079397   -1.643964
      2          7           0        2.347982   -1.068080   -1.143552
      3          6           0        2.427938   -2.361757   -1.850561
      4         16           0        2.326367   -1.220192    0.543843
      5          8           0        1.400112   -2.318697    0.829643
      6          8           0        3.690201   -1.266223    1.092555
      7          7           0        1.687448    0.191911    1.128961
      8          6           0        0.282916    0.645113    0.984146
      9          6           0       -0.160818    0.805127   -0.512247
     10         16           0        0.276467    2.572907   -0.444310
     11          8           0        1.653746    2.817821   -0.928534
     12          8           0       -0.787184    3.499376   -0.875933
     13          6           0        0.267367    2.165618    1.333609
     14          6           0       -0.614260   -0.216913    1.893198
     15          6           0       -2.127491    0.065630    1.900176
     16          6           0       -2.917681   -0.487997    0.727977
     17          6           0       -2.802152   -1.833358    0.348970
     18          6           0       -3.555979   -2.348006   -0.705418
     19          6           0       -4.442949   -1.525604   -1.404181
     20          6           0       -4.569296   -0.185523   -1.037303
     21          6           0       -3.811782    0.326147    0.019216
     22          1           0        3.162680    0.003210   -2.721677
     23          1           0        4.355687   -0.383471   -1.456730
     24          1           0        3.125535    0.897024   -1.199371
     25          1           0        2.227679   -2.163453   -2.904192
     26          1           0        1.666704   -3.035392   -1.460576
     27          1           0        3.416747   -2.828192   -1.758250
     28          1           0        2.403181    0.913542    1.197319
     29          1           0       -1.236687    0.710987   -0.654563
     30          1           0        0.395400    0.220369   -1.242441
     31          1           0       -0.676333    2.486454    1.773510
     32          1           0        1.106626    2.561017    1.907411
     33          1           0       -0.227579   -0.083587    2.907608
     34          1           0       -0.439444   -1.262554    1.636236
     35          1           0       -2.329657    1.138695    1.998753
     36          1           0       -2.512469   -0.388650    2.819630
     37          1           0       -2.115848   -2.483826    0.882916
     38          1           0       -3.451199   -3.392928   -0.980531
     39          1           0       -5.028354   -1.926699   -2.225191
     40          1           0       -5.253598    0.463992   -1.572290
     41          1           0       -3.913174    1.370508    0.298477
 ---------------------------------------------------------------------

 SCF Done:  E(RB3LYP) =  -1714.05995194     A.U. after   11 cycles

 The electronic state is 1-A.
 Alpha  occ. eigenvalues --  -89.14335 -89.10144 -19.16003 -19.15938 -19.15794
 Alpha  occ. eigenvalues --  -19.15786 -14.38329 -14.37928 -10.28187 -10.23678
 Alpha  occ. eigenvalues --  -10.22649 -10.21930 -10.21836 -10.20094 -10.19705
 Alpha  occ. eigenvalues --  -10.19676 -10.19226 -10.19217 -10.19062 -10.19035
 Alpha  occ. eigenvalues --  -10.19009  -8.16515  -8.13223  -6.13000  -6.12938
 Alpha  occ. eigenvalues --   -6.12923  -6.09675  -6.09572  -6.09470  -1.13484
 Alpha  occ. eigenvalues --   -1.11029  -1.01706  -1.00775  -0.95589  -0.93910
 Alpha  occ. eigenvalues --   -0.86349  -0.85583  -0.79511  -0.74739  -0.74442
 Alpha  occ. eigenvalues --   -0.72807  -0.72355  -0.71118  -0.67774  -0.63160
 Alpha  occ. eigenvalues --   -0.60954  -0.60340  -0.58707  -0.56983  -0.54994
 Alpha  occ. eigenvalues --   -0.53062  -0.51911  -0.51389  -0.50626  -0.49502
 Alpha  occ. eigenvalues --   -0.48547  -0.47535  -0.46522  -0.46351  -0.45580
 Alpha  occ. eigenvalues --   -0.45044  -0.44359  -0.43961  -0.43407  -0.42146
 Alpha  occ. eigenvalues --   -0.42087  -0.41349  -0.40799  -0.40519  -0.39387
 Alpha  occ. eigenvalues --   -0.38548  -0.37167  -0.37149  -0.35705  -0.35385
 Alpha  occ. eigenvalues --   -0.34429  -0.34041  -0.33542  -0.33195  -0.33082
 Alpha  occ. eigenvalues --   -0.32281  -0.31705  -0.31319  -0.30105  -0.28948
 Alpha  occ. eigenvalues --   -0.25999  -0.25443  -0.24555
 Alpha virt. eigenvalues --   -0.00766  -0.00531   0.03580   0.03882   0.04436
 Alpha virt. eigenvalues --    0.05751   0.05895   0.06542   0.07682   0.08851
 Alpha virt. eigenvalues --    0.09166   0.10484   0.11088   0.11555   0.12696

 Mulliken charges:
               1
     1  C   -0.345797
     2  N   -0.528964
     3  C   -0.324487
     4  S    1.313276
     5  O   -0.570702
     6  O   -0.565546
     7  N   -0.730277
     8  C    0.174692
     9  C   -0.504202
    10  S    1.111142
    11  O   -0.568906
    12  O   -0.551731
    13  C   -0.511538
    14  C   -0.285670
    15  C   -0.373616
    16  C    0.149477
    17  C   -0.192644
    18  C   -0.147481
    19  C   -0.151158
    20  C   -0.142613
    21  C   -0.209736
    22  H    0.188477
    23  H    0.174225
    24  H    0.196978
    25  H    0.187482
    26  H    0.197723
    27  H    0.169245
    28  H    0.414107
    29  H    0.227014
    30  H    0.256293
    31  H    0.239640
    32  H    0.242440
    33  H    0.169067
    34  H    0.201106
    35  H    0.160156
    36  H    0.181703
    37  H    0.150426
    38  H    0.151028
    39  H    0.150102
    40  H    0.151384
    41  H    0.147883
 Sum of Mulliken charges =   0.00000

 Dipole moment (field-independent basis, Debye):
    X=             -2.1717    Y=             -0.8960    Z=              0.2404  Tot=              2.3616
 Quadrupole moment (field-independent basis, Debye-Ang):
   XX=           -143.2270   YY=           -155.9491   ZZ=           -129.2254
   XY=              5.4626   XZ=             -9.1200   YZ=             23.9553

 Normal termination of Gaussian 09 at Thu Oct  1 22:24:03 2020.
