 Gaussian 09, Revision D.01,

 -----------------
 #p b3lyp/6-31G(d)
 -----------------

 -----------------
 SM40.n.15.pdb.xyz
 -----------------
 Symbolic Z-matrix:
 Charge =  0 Multiplicity = 1

 SCF Done:  E(RB3LYP) =  -1714.03117965     A.U. after   15 cycles
 Normal termination of Gaussian 09 at Thu Aug  6 22:01:28 2020.
 Gaussian 09:  AM64L-G09RevD.01 24-Apr-2013

 ----------------------------------------------------------------------
 #p b3lyp/6-31G(d) scrf=(iefpcm,read,solvent=Water) geom=allcheck guess
 =read
 ----------------------------------------------------------------------

 Structure from the checkpoint file:  "SM40.n.15.pdb.xyz.mst.n.w.chk"
 -----------------
 SM40.n.15.pdb.xyz
 -----------------
 Charge =  0 Multiplicity = 1

                         Standard orientation:
 ---------------------------------------------------------------------
 Center     Atomic      Atomic             Coordinates (Angstroms)
 Number     Number       Type             X           Y           Z
 ---------------------------------------------------------------------
      1          8           0        3.289656    0.341808   -0.209062
      2         16           0        2.585852   -0.827025    0.331484
      3          7           0        0.996254   -0.748404   -0.238977
      4          6           0        0.283339    0.542099   -0.228815
      5          6           0        0.812912    1.519675   -1.329599
      6         16           0        0.760890    2.891691   -0.129300
      7          6           0        0.509376    1.489281    1.004748
      8          8           0        2.044022    3.598512    0.046801
      9          8           0       -0.468553    3.700903   -0.272953
     10          6           0       -1.208054    0.246560   -0.463843
     11          6           0       -1.934390   -0.506654    0.665426
     12          6           0       -3.395278   -0.724287    0.333084
     13          6           0       -3.806267   -1.868354   -0.364417
     14          6           0       -5.147580   -2.056542   -0.701552
     15          6           0       -6.100938   -1.100694   -0.346029
     16          6           0       -5.703483    0.042016    0.351424
     17          6           0       -4.360823    0.226441    0.686103
     18          7           0        3.149630   -2.191305   -0.473500
     19          6           0        4.571066   -2.110777   -0.861092
     20          6           0        2.787583   -3.468183    0.162582
     21          8           0        2.591926   -1.028938    1.790975
     22          1           0        0.452159   -1.472404    0.232969
     23          1           0        0.171478    1.661728   -2.198058
     24          1           0        1.845087    1.321598   -1.606033
     25          1           0       -0.333232    1.619224    1.683668
     26          1           0        1.421411    1.287909    1.562782
     27          1           0       -1.292958   -0.314610   -1.400695
     28          1           0       -1.707351    1.207074   -0.624631
     29          1           0       -1.851221    0.063156    1.597049
     30          1           0       -1.464039   -1.478401    0.847093
     31          1           0       -3.069772   -2.617824   -0.639913
     32          1           0       -5.447616   -2.950987   -1.238532
     33          1           0       -7.144987   -1.246686   -0.604785
     34          1           0       -6.437473    0.788238    0.637745
     35          1           0       -4.058764    1.115867    1.232287
     36          1           0        4.760356   -1.165568   -1.365191
     37          1           0        4.752455   -2.931446   -1.556985
     38          1           0        5.247926   -2.215154   -0.004864
     39          1           0        1.711880   -3.523960    0.326013
     40          1           0        3.309430   -3.626041    1.113461
     41          1           0        3.064968   -4.260178   -0.535189
 ---------------------------------------------------------------------

 SCF Done:  E(RB3LYP) =  -1714.05597777     A.U. after   11 cycles

 The electronic state is 1-A.
 Alpha  occ. eigenvalues --  -89.14765 -89.09929 -19.16720 -19.16482 -19.15653
 Alpha  occ. eigenvalues --  -19.15478 -14.38707 -14.38371 -10.28223 -10.23109
 Alpha  occ. eigenvalues --  -10.22694 -10.22609 -10.22262 -10.20787 -10.20222
 Alpha  occ. eigenvalues --  -10.20175 -10.19199 -10.19190 -10.19091 -10.19088
 Alpha  occ. eigenvalues --  -10.19048  -8.17059  -8.13006  -6.13543  -6.13464
 Alpha  occ. eigenvalues --   -6.13452  -6.09453  -6.09358  -6.09259  -1.14074
 Alpha  occ. eigenvalues --   -1.10750  -1.02257  -1.00465  -0.95954  -0.94676
 Alpha  occ. eigenvalues --   -0.86422  -0.85821  -0.80009  -0.74832  -0.74578
 Alpha  occ. eigenvalues --   -0.72939  -0.72573  -0.71861  -0.67473  -0.62596
 Alpha  occ. eigenvalues --   -0.61443  -0.60678  -0.58429  -0.57289  -0.55608
 Alpha  occ. eigenvalues --   -0.53097  -0.52371  -0.51345  -0.50378  -0.49692
 Alpha  occ. eigenvalues --   -0.49118  -0.47610  -0.46873  -0.46152  -0.45639
 Alpha  occ. eigenvalues --   -0.45430  -0.44890  -0.43818  -0.43060  -0.42606
 Alpha  occ. eigenvalues --   -0.41997  -0.41676  -0.41158  -0.41080  -0.39294
 Alpha  occ. eigenvalues --   -0.39107  -0.37873  -0.36944  -0.36396  -0.35675
 Alpha  occ. eigenvalues --   -0.34913  -0.34127  -0.33898  -0.33680  -0.33230
 Alpha  occ. eigenvalues --   -0.32797  -0.32582  -0.30915  -0.30379  -0.28495
 Alpha  occ. eigenvalues --   -0.26032  -0.25399  -0.24739
 Alpha virt. eigenvalues --   -0.00566  -0.00487   0.02287   0.04171   0.04810
 Alpha virt. eigenvalues --    0.05146   0.05611   0.05765   0.06904   0.08452
 Alpha virt. eigenvalues --    0.08745   0.09393   0.10752   0.11743   0.11858

 Mulliken charges:
               1
     1  O   -0.585846
     2  S    1.318438
     3  N   -0.712256
     4  C    0.172407
     5  C   -0.482950
     6  S    1.112685
     7  C   -0.506054
     8  O   -0.556510
     9  O   -0.573689
    10  C   -0.301778
    11  C   -0.385010
    12  C    0.162402
    13  C   -0.194184
    14  C   -0.149298
    15  C   -0.149568
    16  C   -0.149132
    17  C   -0.195012
    18  N   -0.527552
    19  C   -0.327038
    20  C   -0.326695
    21  O   -0.555225
    22  H    0.379146
    23  H    0.232817
    24  H    0.248405
    25  H    0.234605
    26  H    0.243128
    27  H    0.183132
    28  H    0.182346
    29  H    0.172140
    30  H    0.164247
    31  H    0.146025
    32  H    0.150836
    33  H    0.149997
    34  H    0.151156
    35  H    0.146340
    36  H    0.200390
    37  H    0.191985
    38  H    0.173931
    39  H    0.184964
    40  H    0.180654
    41  H    0.195622
 Sum of Mulliken charges =   0.00000

 Dipole moment (field-independent basis, Debye):
    X=             -2.4317    Y=            -10.5261    Z=             -1.6209  Tot=             10.9242
 Quadrupole moment (field-independent basis, Debye-Ang):
   XX=           -133.2593   YY=           -152.0672   ZZ=           -138.1917
   XY=            -19.8490   XZ=             -7.3529   YZ=              5.2643

 Normal termination of Gaussian 09 at Thu Aug  6 22:06:07 2020.
