 Gaussian 09, Revision D.01,

 -----------------
 #p b3lyp/6-31G(d)
 -----------------

 -----------------
 SM40.n.25.pdb.xyz
 -----------------
 Symbolic Z-matrix:
 Charge =  0 Multiplicity = 1

 SCF Done:  E(RB3LYP) =  -1714.03911383     A.U. after   15 cycles
 Normal termination of Gaussian 09 at Fri Oct  2 06:18:51 2020.
 Gaussian 09:  AM64L-G09RevD.01 24-Apr-2013

 ----------------------------------------------------------------------
 #p b3lyp/6-31G(d) scrf=(iefpcm,read,solvent=n-Octanol) geom=allcheck g
 uess=read
 ----------------------------------------------------------------------

 Structure from the checkpoint file:  "SM40.n.25.pdb.xyz.mst.n.o.chk"
 -----------------
 SM40.n.25.pdb.xyz
 -----------------
 Charge =  0 Multiplicity = 1

                         Standard orientation:
 ---------------------------------------------------------------------
 Center     Atomic      Atomic             Coordinates (Angstroms)
 Number     Number       Type             X           Y           Z
 ---------------------------------------------------------------------
      1          6           0       -3.712543   -2.771008    1.068969
      2          7           0       -3.334174   -2.067642   -0.162228
      3          6           0       -4.290739   -1.047445   -0.603868
      4         16           0       -1.727884   -1.656190   -0.314444
      5          8           0       -0.961530   -2.820175    0.136061
      6          8           0       -1.540037   -1.096037   -1.652005
      7          7           0       -1.505270   -0.362850    0.765717
      8          6           0       -0.594515    0.760764    0.476383
      9          6           0       -0.961183    1.941693    1.436474
     10         16           0       -0.872529    3.098396    0.026379
     11          8           0       -2.065093    3.940881   -0.143426
     12          8           0        0.466565    3.710824   -0.069985
     13          6           0       -0.938736    1.501594   -0.854649
     14          6           0        0.904979    0.451959    0.612392
     15          6           0        1.504340   -0.548871   -0.382747
     16          6           0        3.002790   -0.666857   -0.210322
     17          6           0        3.586343   -1.890036    0.131752
     18          6           0        4.966279   -2.005774    0.293859
     19          6           0        5.787526   -0.893274    0.116377
     20          6           0        5.216671    0.335948   -0.223410
     21          6           0        3.836376    0.445589   -0.383595
     22          1           0       -4.665979   -3.269126    0.883709
     23          1           0       -3.832135   -2.087667    1.919311
     24          1           0       -2.959527   -3.522544    1.297901
     25          1           0       -5.258320   -1.537037   -0.730938
     26          1           0       -3.969565   -0.649160   -1.564983
     27          1           0       -4.392272   -0.232300    0.123285
     28          1           0       -1.344274   -0.737828    1.701981
     29          1           0       -0.263187    2.152074    2.246735
     30          1           0       -1.989212    1.880691    1.794740
     31          1           0       -0.229205    1.406546   -1.674016
     32          1           0       -1.953681    1.319125   -1.200887
     33          1           0        1.085677    0.097799    1.633929
     34          1           0        1.434589    1.404355    0.519225
     35          1           0        1.273337   -0.232018   -1.407676
     36          1           0        1.048421   -1.532113   -0.247782
     37          1           0        2.948654   -2.758206    0.268451
     38          1           0        5.398557   -2.965948    0.558048
     39          1           0        6.861998   -0.980831    0.241646
     40          1           0        5.846719    1.208567   -0.363546
     41          1           0        3.397351    1.404133   -0.645369
 ---------------------------------------------------------------------

 SCF Done:  E(RB3LYP) =  -1714.06840142     A.U. after   11 cycles

 The electronic state is 1-A.
 Alpha  occ. eigenvalues --  -89.14366 -89.09828 -19.16180 -19.16070 -19.15597
 Alpha  occ. eigenvalues --  -19.15283 -14.38473 -14.38315 -10.28102 -10.23494
 Alpha  occ. eigenvalues --  -10.23370 -10.22869 -10.22710 -10.20191 -10.19657
 Alpha  occ. eigenvalues --  -10.19100 -10.18991 -10.18919 -10.18814 -10.18762
 Alpha  occ. eigenvalues --  -10.18697  -8.16596  -8.12903  -6.13067  -6.13022
 Alpha  occ. eigenvalues --   -6.13004  -6.09339  -6.09254  -6.09170  -1.13858
 Alpha  occ. eigenvalues --   -1.10800  -1.02291  -1.00540  -0.95631  -0.94655
 Alpha  occ. eigenvalues --   -0.86296  -0.85572  -0.79536  -0.74386  -0.74117
 Alpha  occ. eigenvalues --   -0.73495  -0.72891  -0.71870  -0.67352  -0.63392
 Alpha  occ. eigenvalues --   -0.60584  -0.60421  -0.58150  -0.57701  -0.55259
 Alpha  occ. eigenvalues --   -0.52831  -0.52223  -0.51540  -0.50584  -0.49436
 Alpha  occ. eigenvalues --   -0.48797  -0.47447  -0.47270  -0.46334  -0.45691
 Alpha  occ. eigenvalues --   -0.44903  -0.44766  -0.44311  -0.43076  -0.42283
 Alpha  occ. eigenvalues --   -0.41744  -0.41656  -0.41513  -0.40892  -0.39641
 Alpha  occ. eigenvalues --   -0.39152  -0.37638  -0.36795  -0.35724  -0.34855
 Alpha  occ. eigenvalues --   -0.34618  -0.33976  -0.33783  -0.33633  -0.32711
 Alpha  occ. eigenvalues --   -0.32529  -0.31906  -0.30846  -0.29740  -0.28620
 Alpha  occ. eigenvalues --   -0.26486  -0.25066  -0.24274
 Alpha virt. eigenvalues --   -0.00318   0.00061   0.02485   0.03960   0.04606
 Alpha virt. eigenvalues --    0.05489   0.06421   0.07475   0.08284   0.08792
 Alpha virt. eigenvalues --    0.09379   0.09983   0.10067   0.10586   0.11825

 Mulliken charges:
               1
     1  C   -0.339045
     2  N   -0.500997
     3  C   -0.334584
     4  S    1.388367
     5  O   -0.555276
     6  O   -0.581149
     7  N   -0.745987
     8  C    0.159007
     9  C   -0.491183
    10  S    1.101756
    11  O   -0.527231
    12  O   -0.550846
    13  C   -0.472865
    14  C   -0.280277
    15  C   -0.394033
    16  C    0.172730
    17  C   -0.198716
    18  C   -0.138882
    19  C   -0.141094
    20  C   -0.142026
    21  C   -0.188572
    22  H    0.187699
    23  H    0.163921
    24  H    0.203862
    25  H    0.186162
    26  H    0.198638
    27  H    0.166996
    28  H    0.374899
    29  H    0.225002
    30  H    0.222221
    31  H    0.226613
    32  H    0.223792
    33  H    0.157277
    34  H    0.179559
    35  H    0.163409
    36  H    0.187976
    37  H    0.136672
    38  H    0.138961
    39  H    0.138415
    40  H    0.140034
    41  H    0.138794
 Sum of Mulliken charges =   0.00000

 Dipole moment (field-independent basis, Debye):
    X=             -3.4396    Y=             -3.8733    Z=              4.7348  Tot=              7.0179
 Quadrupole moment (field-independent basis, Debye-Ang):
   XX=           -118.1023   YY=           -169.2363   ZZ=           -133.8530
   XY=             10.4283   XZ=             -6.1772   YZ=             -3.9483

 Normal termination of Gaussian 09 at Fri Oct  2 06:23:32 2020.
