 Gaussian 09, Revision D.01,

 -----------------
 #p b3lyp/6-31G(d)
 -----------------

 -----------------
 SM40.n.11.pdb.xyz
 -----------------
 Symbolic Z-matrix:
 Charge =  0 Multiplicity = 1

 SCF Done:  E(RB3LYP) =  -1714.03718313     A.U. after   15 cycles
 Normal termination of Gaussian 09 at Fri Oct  2 06:17:06 2020.
 Gaussian 09:  AM64L-G09RevD.01 24-Apr-2013

 ----------------------------------------------------------------------
 #p b3lyp/6-31G(d) scrf=(iefpcm,read,solvent=n-Octanol) geom=allcheck g
 uess=read
 ----------------------------------------------------------------------

 Structure from the checkpoint file:  "SM40.n.11.pdb.xyz.mst.n.o.chk"
 -----------------
 SM40.n.11.pdb.xyz
 -----------------
 Charge =  0 Multiplicity = 1

                         Standard orientation:
 ---------------------------------------------------------------------
 Center     Atomic      Atomic             Coordinates (Angstroms)
 Number     Number       Type             X           Y           Z
 ---------------------------------------------------------------------
      1          6           0       -4.133200   -2.439797    1.074117
      2          7           0       -3.671238   -1.802786   -0.163531
      3          6           0       -4.520374   -0.715071   -0.659198
      4         16           0       -2.032829   -1.570448   -0.319811
      5          8           0       -1.383889   -2.783551    0.181163
      6          8           0       -1.774855   -1.086468   -1.675082
      7          7           0       -1.683452   -0.247803    0.700418
      8          6           0       -0.518225    0.604166    0.363924
      9          6           0       -0.498271    1.780365    1.395993
     10         16           0       -0.669208    2.997809    0.040372
     11          8           0       -1.925121    3.760713    0.106146
     12          8           0        0.594990    3.708200   -0.222574
     13          6           0       -0.813327    1.451499   -0.915078
     14          6           0        0.793404   -0.197215    0.308214
     15          6           0        2.064463    0.600134    0.012341
     16          6           0        3.332442   -0.235351    0.000423
     17          6           0        3.325540   -1.618709    0.189888
     18          6           0        4.514128   -2.351313    0.170301
     19          6           0        5.732216   -1.709719   -0.041285
     20          6           0        5.752493   -0.325092   -0.232872
     21          6           0        4.564001    0.401003   -0.211385
     22          1           0       -5.118395   -2.868539    0.878972
     23          1           0       -4.219880   -1.724521    1.903423
     24          1           0       -3.447646   -3.239537    1.344296
     25          1           0       -5.524477   -1.118724   -0.801108
     26          1           0       -4.140425   -0.374968   -1.620521
     27          1           0       -4.564963    0.127113    0.043330
     28          1           0       -1.610274   -0.597401    1.657722
     29          1           0        0.420623    1.900879    1.966817
     30          1           0       -1.372988    1.804253    2.045997
     31          1           0       -0.082143    1.376153   -1.718286
     32          1           0       -1.819908    1.324374   -1.303582
     33          1           0        0.668280   -0.974678   -0.450756
     34          1           0        0.902420   -0.716107    1.265744
     35          1           0        2.186074    1.405652    0.747092
     36          1           0        1.969101    1.104749   -0.955326
     37          1           0        2.387429   -2.135706    0.355187
     38          1           0        4.483529   -3.425821    0.319723
     39          1           0        6.656459   -2.277474   -0.056799
     40          1           0        6.694150    0.189005   -0.398287
     41          1           0        4.587721    1.477079   -0.360345
 ---------------------------------------------------------------------

 SCF Done:  E(RB3LYP) =  -1714.06661751     A.U. after   11 cycles

 The electronic state is 1-A.
 Alpha  occ. eigenvalues --  -89.14191 -89.09704 -19.16112 -19.15984 -19.15365
 Alpha  occ. eigenvalues --  -19.15248 -14.38507 -14.38263 -10.28129 -10.23559
 Alpha  occ. eigenvalues --  -10.23066 -10.22901 -10.22661 -10.20442 -10.20052
 Alpha  occ. eigenvalues --  -10.19996 -10.19035 -10.18985 -10.18837 -10.18807
 Alpha  occ. eigenvalues --  -10.18792  -8.16454  -8.12777  -6.12914  -6.12878
 Alpha  occ. eigenvalues --   -6.12866  -6.09212  -6.09131  -6.09044  -1.13808
 Alpha  occ. eigenvalues --   -1.10666  -1.02184  -1.00403  -0.95658  -0.94749
 Alpha  occ. eigenvalues --   -0.86132  -0.85421  -0.79795  -0.74617  -0.74139
 Alpha  occ. eigenvalues --   -0.73525  -0.73052  -0.71960  -0.67451  -0.63577
 Alpha  occ. eigenvalues --   -0.60731  -0.60035  -0.58499  -0.57108  -0.55461
 Alpha  occ. eigenvalues --   -0.53366  -0.52085  -0.51214  -0.50275  -0.49873
 Alpha  occ. eigenvalues --   -0.49062  -0.47681  -0.46996  -0.46162  -0.45680
 Alpha  occ. eigenvalues --   -0.45401  -0.44884  -0.43853  -0.43340  -0.42258
 Alpha  occ. eigenvalues --   -0.41969  -0.41592  -0.41343  -0.40896  -0.39762
 Alpha  occ. eigenvalues --   -0.39657  -0.37455  -0.36672  -0.35998  -0.35228
 Alpha  occ. eigenvalues --   -0.34889  -0.33985  -0.33738  -0.33490  -0.32932
 Alpha  occ. eigenvalues --   -0.32389  -0.31823  -0.30742  -0.29544  -0.28678
 Alpha  occ. eigenvalues --   -0.26616  -0.25136  -0.24365
 Alpha virt. eigenvalues --   -0.00417   0.00096   0.02409   0.03439   0.04666
 Alpha virt. eigenvalues --    0.05357   0.06064   0.07544   0.07607   0.09330
 Alpha virt. eigenvalues --    0.09385   0.09873   0.09909   0.10350   0.11533

 Mulliken charges:
               1
     1  C   -0.337801
     2  N   -0.503147
     3  C   -0.332048
     4  S    1.357673
     5  O   -0.550374
     6  O   -0.580380
     7  N   -0.729499
     8  C    0.163420
     9  C   -0.508306
    10  S    1.113193
    11  O   -0.532232
    12  O   -0.548953
    13  C   -0.474541
    14  C   -0.302804
    15  C   -0.364446
    16  C    0.155002
    17  C   -0.188347
    18  C   -0.148271
    19  C   -0.138890
    20  C   -0.141798
    21  C   -0.184586
    22  H    0.187686
    23  H    0.164804
    24  H    0.204417
    25  H    0.184966
    26  H    0.198197
    27  H    0.170821
    28  H    0.372381
    29  H    0.225506
    30  H    0.225701
    31  H    0.222627
    32  H    0.230856
    33  H    0.191544
    34  H    0.163315
    35  H    0.168231
    36  H    0.171862
    37  H    0.140400
    38  H    0.140002
    39  H    0.138653
    40  H    0.140099
    41  H    0.135066
 Sum of Mulliken charges =   0.00000

 Dipole moment (field-independent basis, Debye):
    X=             -2.6682    Y=             -3.5296    Z=              4.3433  Tot=              6.2001
 Quadrupole moment (field-independent basis, Debye-Ang):
   XX=           -115.8791   YY=           -170.2272   ZZ=           -134.1346
   XY=              8.1312   XZ=             -6.6770   YZ=             -3.9378

 Normal termination of Gaussian 09 at Fri Oct  2 06:21:41 2020.
