 Gaussian 09, Revision D.01,

 -----------------
 #p b3lyp/6-31G(d)
 -----------------

 --------------------
 SM40_38.n.13.pdb.xyz
 --------------------
 Symbolic Z-matrix:
 Charge =  0 Multiplicity = 1

 SCF Done:  E(RB3LYP) =  -1714.03366549     A.U. after   16 cycles
 Normal termination of Gaussian 09 at Mon Sep 21 21:01:35 2020.
 Gaussian 09:  AM64L-G09RevD.01 24-Apr-2013

 ----------------------------------------------------------------------
 #p b3lyp/6-31G(d) scrf=(iefpcm,read,solvent=n-Octanol) geom=allcheck g
 uess=read
 ----------------------------------------------------------------------

 Structure from the checkpoint file:  "SM40_38.n.13.pdb.xyz.mst.n.o.chk"
 --------------------
 SM40_38.n.13.pdb.xyz
 --------------------
 Charge =  0 Multiplicity = 1

                         Standard orientation:
 ---------------------------------------------------------------------
 Center     Atomic      Atomic             Coordinates (Angstroms)
 Number     Number       Type             X           Y           Z
 ---------------------------------------------------------------------
      1         16           0        2.156140    1.771653   -0.150673
      2          7           0        1.674581    0.360355   -0.895126
      3          6           0        0.780872   -0.679586   -0.344342
      4          6           0        1.335944   -1.204746    1.020030
      5         16           0        2.056697   -2.659534    0.189980
      6          6           0        1.056707   -1.974640   -1.178769
      7          8           0        3.501002   -2.515392   -0.050765
      8          8           0        1.534672   -3.937886    0.699833
      9          6           0       -0.693948   -0.237746   -0.336633
     10          6           0       -1.709888   -1.250638    0.222743
     11          6           0       -3.125309   -0.722465    0.142377
     12          6           0       -3.913101   -0.953839   -0.992597
     13          6           0       -5.206445   -0.439649   -1.082056
     14          6           0       -5.734214    0.317374   -0.034277
     15          6           0       -4.959142    0.552563    1.102318
     16          6           0       -3.667080    0.036596    1.187752
     17          8           0        2.956061    2.452477   -1.172201
     18          8           0        2.741703    1.442283    1.148873
     19          1           0        1.623866    0.486547   -1.899881
     20          1           0        0.556684   -1.526203    1.708905
     21          1           0        2.062232   -0.561287    1.509967
     22          1           0        0.170977   -2.588829   -1.339189
     23          1           0        1.610269   -1.840964   -2.108668
     24          1           0       -0.968804    0.003951   -1.369704
     25          1           0       -0.756790    0.695276    0.229785
     26          1           0       -1.469709   -1.477328    1.266689
     27          1           0       -1.646197   -2.195299   -0.328125
     28          1           0       -3.511690   -1.548013   -1.808180
     29          1           0       -5.803336   -0.634630   -1.967421
     30          1           0       -6.741549    0.715092   -0.101774
     31          1           0       -5.363061    1.134602    1.925547
     32          1           0       -3.071910    0.217458    2.078655
     33          7           0        0.738427    2.627894    0.196053
     34          6           0        0.115462    3.243424   -0.984111
     35          1           0       -0.879457    3.581420   -0.690820
     36          1           0        0.692375    4.093270   -1.365029
     37          1           0        0.003597    2.503769   -1.777024
     38          6           0        0.847111    3.544801    1.343285
     39          1           0        1.443833    4.436107    1.113409
     40          1           0       -0.165994    3.856161    1.602199
     41          1           0        1.288882    3.016710    2.185034
 ---------------------------------------------------------------------

 SCF Done:  E(RB3LYP) =  -1714.06553310     A.U. after   11 cycles

 The electronic state is 1-A.
 Alpha  occ. eigenvalues --  -89.14421 -89.09710 -19.16019 -19.15798 -19.15237
 Alpha  occ. eigenvalues --  -19.15107 -14.38626 -14.38270 -10.28475 -10.23701
 Alpha  occ. eigenvalues --  -10.22987 -10.22915 -10.22534 -10.20574 -10.20374
 Alpha  occ. eigenvalues --  -10.20222 -10.19301 -10.19290 -10.19199 -10.19190
 Alpha  occ. eigenvalues --  -10.19144  -8.16602  -8.12754  -6.13086  -6.13025
 Alpha  occ. eigenvalues --   -6.13010  -6.09186  -6.09109  -6.09030  -1.13682
 Alpha  occ. eigenvalues --   -1.10576  -1.01975  -1.00278  -0.95825  -0.94480
 Alpha  occ. eigenvalues --   -0.86388  -0.85683  -0.79985  -0.74702  -0.74524
 Alpha  occ. eigenvalues --   -0.73389  -0.73115  -0.71633  -0.68081  -0.63109
 Alpha  occ. eigenvalues --   -0.60855  -0.60813  -0.58925  -0.57757  -0.55628
 Alpha  occ. eigenvalues --   -0.53590  -0.51930  -0.51222  -0.50364  -0.49920
 Alpha  occ. eigenvalues --   -0.48889  -0.47767  -0.46982  -0.46743  -0.45819
 Alpha  occ. eigenvalues --   -0.45212  -0.44414  -0.44111  -0.43460  -0.42661
 Alpha  occ. eigenvalues --   -0.42199  -0.41777  -0.41557  -0.41048  -0.39448
 Alpha  occ. eigenvalues --   -0.39382  -0.38269  -0.36127  -0.35848  -0.35683
 Alpha  occ. eigenvalues --   -0.34569  -0.34301  -0.33896  -0.33267  -0.32802
 Alpha  occ. eigenvalues --   -0.32299  -0.31888  -0.30638  -0.29480  -0.29405
 Alpha  occ. eigenvalues --   -0.26145  -0.25389  -0.24647
 Alpha virt. eigenvalues --   -0.00574  -0.00480   0.02728   0.03388   0.04828
 Alpha virt. eigenvalues --    0.05392   0.06101   0.06464   0.07802   0.08328
 Alpha virt. eigenvalues --    0.08997   0.09642   0.09990   0.10272   0.11451

 Mulliken charges:
               1
     1  S    1.318035
     2  N   -0.718706
     3  C    0.173279
     4  C   -0.515180
     5  S    1.104848
     6  C   -0.503888
     7  O   -0.528919
     8  O   -0.536909
     9  C   -0.278550
    10  C   -0.381694
    11  C    0.166827
    12  C   -0.185517
    13  C   -0.138701
    14  C   -0.139698
    15  C   -0.137992
    16  C   -0.184737
    17  O   -0.541781
    18  O   -0.557969
    19  H    0.385940
    20  H    0.216833
    21  H    0.265025
    22  H    0.221250
    23  H    0.226352
    24  H    0.154874
    25  H    0.190166
    26  H    0.161497
    27  H    0.158396
    28  H    0.133994
    29  H    0.141485
    30  H    0.140933
    31  H    0.141434
    32  H    0.134379
    33  N   -0.522692
    34  C   -0.323940
    35  H    0.184292
    36  H    0.179821
    37  H    0.172877
    38  C   -0.323970
    39  H    0.167446
    40  H    0.178865
    41  H    0.201995
 Sum of Mulliken charges =   0.00000

 Dipole moment (field-independent basis, Debye):
    X=             -9.0433    Y=              4.9286    Z=             -2.3368  Tot=             10.5609
 Quadrupole moment (field-independent basis, Debye-Ang):
   XX=           -167.1946   YY=           -151.3869   ZZ=           -127.4480
   XY=              2.5137   XZ=             -0.1359   YZ=             10.6246

 Normal termination of Gaussian 09 at Mon Sep 21 21:06:19 2020.
