 Gaussian 09, Revision D.01,

 -----------------
 #p b3lyp/6-31G(d)
 -----------------

 ----------------
 SM40.n.5.pdb.xyz
 ----------------
 Symbolic Z-matrix:
 Charge =  0 Multiplicity = 1

 SCF Done:  E(RB3LYP) =  -1714.03015722     A.U. after   15 cycles
 Normal termination of Gaussian 09 at Thu Oct  1 22:18:02 2020.
 Gaussian 09:  AM64L-G09RevD.01 24-Apr-2013

 ----------------------------------------------------------------------
 #p b3lyp/6-31G(d) scrf=(iefpcm,read,solvent=Water) geom=allcheck guess
 =read
 ----------------------------------------------------------------------

 Structure from the checkpoint file:  "SM40.n.5.pdb.xyz.mst.n.w.chk"
 ----------------
 SM40.n.5.pdb.xyz
 ----------------
 Charge =  0 Multiplicity = 1

                         Standard orientation:
 ---------------------------------------------------------------------
 Center     Atomic      Atomic             Coordinates (Angstroms)
 Number     Number       Type             X           Y           Z
 ---------------------------------------------------------------------
      1          6           0        3.022179   -2.650913   -0.504891
      2          7           0        3.079656   -1.504263    0.414783
      3          6           0        4.158557   -1.616560    1.415298
      4         16           0        3.005107   -0.004296   -0.360556
      5          8           0        3.278487    0.992764    0.680171
      6          8           0        3.808909    0.009333   -1.590403
      7          7           0        1.443551    0.194010   -0.895085
      8          6           0        0.204156    0.198448   -0.077509
      9          6           0       -0.847219    0.959842   -0.951898
     10         16           0       -0.532717    2.486802   -0.004107
     11          8           0        0.413941    3.392863   -0.684596
     12          8           0       -1.744202    3.076283    0.599414
     13          6           0        0.310441    1.266540    1.060417
     14          6           0       -0.189770   -1.226127    0.357799
     15          6           0       -1.439033   -1.419775    1.239176
     16          6           0       -2.783249   -1.267667    0.557651
     17          6           0       -3.122123   -2.066890   -0.545324
     18          6           0       -4.368838   -1.950675   -1.159869
     19          6           0       -5.305551   -1.030172   -0.679548
     20          6           0       -4.983119   -0.230655    0.418271
     21          6           0       -3.731940   -0.350882    1.029214
     22          1           0        2.862166   -3.545527    0.098557
     23          1           0        3.945081   -2.766611   -1.084343
     24          1           0        2.179555   -2.543356   -1.187587
     25          1           0        3.975672   -2.532851    1.978734
     26          1           0        4.116346   -0.765438    2.090055
     27          1           0        5.152976   -1.675802    0.954872
     28          1           0        1.326225   -0.235019   -1.813569
     29          1           0       -1.870919    0.632328   -0.781270
     30          1           0       -0.627876    1.035474   -2.016196
     31          1           0       -0.323088    1.046651    1.919814
     32          1           0        1.315664    1.547843    1.363983
     33          1           0        0.670082   -1.633308    0.892841
     34          1           0       -0.302995   -1.825954   -0.551895
     35          1           0       -1.398540   -0.762750    2.114672
     36          1           0       -1.366933   -2.438426    1.637681
     37          1           0       -2.402290   -2.785931   -0.923617
     38          1           0       -4.610924   -2.579332   -2.010573
     39          1           0       -6.276492   -0.938945   -1.156306
     40          1           0       -5.701771    0.486346    0.799468
     41          1           0       -3.486658    0.275230    1.881994
 ---------------------------------------------------------------------

 SCF Done:  E(RB3LYP) =  -1714.06113250     A.U. after   11 cycles

 The electronic state is 1-A.
 Alpha  occ. eigenvalues --  -89.14401 -89.09754 -19.16015 -19.15847 -19.15492
 Alpha  occ. eigenvalues --  -19.15323 -14.38223 -14.38011 -10.28005 -10.22967
 Alpha  occ. eigenvalues --  -10.22754 -10.22288 -10.22005 -10.20080 -10.19957
 Alpha  occ. eigenvalues --  -10.19696 -10.19274 -10.19236 -10.19097 -10.19086
 Alpha  occ. eigenvalues --  -10.19068  -8.16579  -8.12816  -6.13056  -6.13006
 Alpha  occ. eigenvalues --   -6.12992  -6.09264  -6.09165  -6.09071  -1.13549
 Alpha  occ. eigenvalues --   -1.10603  -1.01798  -1.00303  -0.95439  -0.94071
 Alpha  occ. eigenvalues --   -0.86209  -0.85387  -0.79497  -0.74658  -0.74321
 Alpha  occ. eigenvalues --   -0.72848  -0.72535  -0.71180  -0.67766  -0.62873
 Alpha  occ. eigenvalues --   -0.60839  -0.60392  -0.58331  -0.57403  -0.55191
 Alpha  occ. eigenvalues --   -0.53009  -0.51541  -0.51454  -0.50338  -0.49014
 Alpha  occ. eigenvalues --   -0.48707  -0.47098  -0.46744  -0.46287  -0.45492
 Alpha  occ. eigenvalues --   -0.45133  -0.44005  -0.43648  -0.43053  -0.42246
 Alpha  occ. eigenvalues --   -0.42070  -0.41514  -0.40966  -0.40825  -0.39780
 Alpha  occ. eigenvalues --   -0.38875  -0.37282  -0.36175  -0.35956  -0.35598
 Alpha  occ. eigenvalues --   -0.34195  -0.33972  -0.33607  -0.33187  -0.32679
 Alpha  occ. eigenvalues --   -0.32557  -0.31881  -0.30857  -0.29529  -0.29200
 Alpha  occ. eigenvalues --   -0.25873  -0.25464  -0.24565
 Alpha virt. eigenvalues --   -0.00822  -0.00499   0.03516   0.03823   0.05030
 Alpha virt. eigenvalues --    0.05798   0.06234   0.06890   0.07939   0.08794
 Alpha virt. eigenvalues --    0.09297   0.09710   0.10587   0.11817   0.12316

 Mulliken charges:
               1
     1  C   -0.329193
     2  N   -0.521021
     3  C   -0.322599
     4  S    1.308838
     5  O   -0.577191
     6  O   -0.564558
     7  N   -0.717976
     8  C    0.156866
     9  C   -0.494528
    10  S    1.110221
    11  O   -0.562376
    12  O   -0.561720
    13  C   -0.504670
    14  C   -0.289221
    15  C   -0.370916
    16  C    0.148023
    17  C   -0.194136
    18  C   -0.146221
    19  C   -0.151572
    20  C   -0.142372
    21  C   -0.205913
    22  H    0.191673
    23  H    0.178023
    24  H    0.182685
    25  H    0.186825
    26  H    0.197983
    27  H    0.169692
    28  H    0.417001
    29  H    0.234289
    30  H    0.235827
    31  H    0.225582
    32  H    0.260322
    33  H    0.191107
    34  H    0.167916
    35  H    0.164173
    36  H    0.178662
    37  H    0.150139
    38  H    0.151422
    39  H    0.150405
    40  H    0.151652
    41  H    0.146858
 Sum of Mulliken charges =   0.00000

 Dipole moment (field-independent basis, Debye):
    X=             -2.1760    Y=            -12.2765    Z=              0.8789  Tot=             12.4987
 Quadrupole moment (field-independent basis, Debye-Ang):
   XX=           -147.0066   YY=           -156.2459   ZZ=           -131.0518
   XY=            -13.5642   XZ=             13.6906   YZ=              4.1662

 Normal termination of Gaussian 09 at Thu Oct  1 22:22:59 2020.
