 Gaussian 09, Revision D.01,

 -----------------
 #p b3lyp/6-31G(d)
 -----------------

 -----------------
 SM40.n.19.pdb.xyz
 -----------------
 Symbolic Z-matrix:
 Charge =  0 Multiplicity = 1

 SCF Done:  E(RB3LYP) =  -1714.03734988     A.U. after   16 cycles
 Normal termination of Gaussian 09 at Fri Oct  2 06:18:12 2020.
 Gaussian 09:  AM64L-G09RevD.01 24-Apr-2013

 ----------------------------------------------------------------------
 #p b3lyp/6-31G(d) scrf=(iefpcm,read,solvent=n-Octanol) geom=allcheck g
 uess=read
 ----------------------------------------------------------------------

 Structure from the checkpoint file:  "SM40.n.19.pdb.xyz.mst.n.o.chk"
 -----------------
 SM40.n.19.pdb.xyz
 -----------------
 Charge =  0 Multiplicity = 1

                         Standard orientation:
 ---------------------------------------------------------------------
 Center     Atomic      Atomic             Coordinates (Angstroms)
 Number     Number       Type             X           Y           Z
 ---------------------------------------------------------------------
      1          6           0       -4.767810    0.594183   -0.033289
      2          7           0       -3.648855   -0.226517    0.460323
      3          6           0       -4.032628   -1.190809    1.502180
      4         16           0       -2.690895   -0.881075   -0.761514
      5          8           0       -3.167808   -2.189320   -1.224737
      6          8           0       -2.492225    0.199416   -1.732485
      7          7           0       -1.298718   -1.233618    0.102615
      8          6           0       -0.218082   -0.276411    0.411925
      9          6           0       -0.744586    0.983257    1.171320
     10         16           0        0.113821    2.083976   -0.007049
     11          8           0       -0.781496    2.989218   -0.743711
     12          8           0        1.352591    2.633839    0.579935
     13          6           0        0.399768    0.473303   -0.826089
     14          6           0        0.782093   -1.097885    1.250649
     15          6           0        2.099561   -0.415890    1.675803
     16          6           0        3.240805   -0.542044    0.683560
     17          6           0        3.878370    0.592918    0.164161
     18          6           0        4.951955    0.464281   -0.719418
     19          6           0        5.406262   -0.798159   -1.096645
     20          6           0        4.777926   -1.936736   -0.586398
     21          6           0        3.706139   -1.806444    0.295172
     22          1           0       -5.163829    1.147510    0.819035
     23          1           0       -5.572170   -0.012452   -0.467911
     24          1           0       -4.395920    1.297078   -0.776221
     25          1           0       -4.440045   -0.623959    2.341495
     26          1           0       -3.144535   -1.727478    1.834302
     27          1           0       -4.784733   -1.906168    1.150284
     28          1           0       -0.956450   -2.138050   -0.218083
     29          1           0       -0.390392    1.098477    2.195513
     30          1           0       -1.827087    1.102881    1.115486
     31          1           0        1.450618    0.280966   -1.037663
     32          1           0       -0.220546    0.400079   -1.718823
     33          1           0        1.032756   -2.010000    0.696271
     34          1           0        0.236210   -1.418811    2.142832
     35          1           0        2.406274   -0.891322    2.614878
     36          1           0        1.934694    0.639682    1.908783
     37          1           0        3.508350    1.574270    0.441693
     38          1           0        5.431998    1.354649   -1.114150
     39          1           0        6.241296   -0.897521   -1.782287
     40          1           0        5.124906   -2.924363   -0.871793
     41          1           0        3.227682   -2.697543    0.693214
 ---------------------------------------------------------------------

 SCF Done:  E(RB3LYP) =  -1714.06620763     A.U. after   11 cycles

 The electronic state is 1-A.
 Alpha  occ. eigenvalues --  -89.14297 -89.09430 -19.16042 -19.15884 -19.15031
 Alpha  occ. eigenvalues --  -19.14983 -14.38478 -14.38460 -10.28150 -10.22866
 Alpha  occ. eigenvalues --  -10.22600 -10.22537 -10.22448 -10.20994 -10.19877
 Alpha  occ. eigenvalues --  -10.19762 -10.19142 -10.18991 -10.18985 -10.18919
 Alpha  occ. eigenvalues --  -10.18528  -8.16536  -8.12502  -6.13023  -6.12963
 Alpha  occ. eigenvalues --   -6.12919  -6.08941  -6.08852  -6.08768  -1.13612
 Alpha  occ. eigenvalues --   -1.10332  -1.01822  -1.00052  -0.95796  -0.94459
 Alpha  occ. eigenvalues --   -0.86139  -0.85298  -0.79627  -0.74877  -0.74393
 Alpha  occ. eigenvalues --   -0.73205  -0.72557  -0.71468  -0.67806  -0.62770
 Alpha  occ. eigenvalues --   -0.60620  -0.60435  -0.58071  -0.57157  -0.54388
 Alpha  occ. eigenvalues --   -0.53788  -0.51842  -0.51355  -0.50429  -0.49569
 Alpha  occ. eigenvalues --   -0.48851  -0.47106  -0.46616  -0.46038  -0.45733
 Alpha  occ. eigenvalues --   -0.45033  -0.44858  -0.43785  -0.43354  -0.42219
 Alpha  occ. eigenvalues --   -0.41804  -0.41529  -0.41118  -0.40448  -0.40175
 Alpha  occ. eigenvalues --   -0.39247  -0.36951  -0.36660  -0.36216  -0.35507
 Alpha  occ. eigenvalues --   -0.34279  -0.33825  -0.33508  -0.33404  -0.32769
 Alpha  occ. eigenvalues --   -0.32027  -0.31832  -0.30369  -0.29910  -0.28031
 Alpha  occ. eigenvalues --   -0.26483  -0.25158  -0.24423
 Alpha virt. eigenvalues --   -0.00607  -0.00247   0.03083   0.04211   0.05192
 Alpha virt. eigenvalues --    0.05623   0.05819   0.06376   0.06811   0.08696
 Alpha virt. eigenvalues --    0.09487   0.09978   0.10531   0.11451   0.12371

 Mulliken charges:
               1
     1  C   -0.330869
     2  N   -0.530790
     3  C   -0.325482
     4  S    1.330114
     5  O   -0.544068
     6  O   -0.553299
     7  N   -0.742590
     8  C    0.205121
     9  C   -0.518012
    10  S    1.122114
    11  O   -0.529754
    12  O   -0.555314
    13  C   -0.515389
    14  C   -0.301897
    15  C   -0.379914
    16  C    0.146530
    17  C   -0.209147
    18  C   -0.138169
    19  C   -0.140521
    20  C   -0.138856
    21  C   -0.188463
    22  H    0.183502
    23  H    0.168985
    24  H    0.206919
    25  H    0.182335
    26  H    0.191616
    27  H    0.174069
    28  H    0.384219
    29  H    0.220866
    30  H    0.248766
    31  H    0.227539
    32  H    0.244068
    33  H    0.161087
    34  H    0.171478
    35  H    0.170434
    36  H    0.178152
    37  H    0.168290
    38  H    0.140676
    39  H    0.139590
    40  H    0.140206
    41  H    0.135860
 Sum of Mulliken charges =   0.00000

 Dipole moment (field-independent basis, Debye):
    X=             -0.9165    Y=             -5.2487    Z=              4.9504  Tot=              7.2729
 Quadrupole moment (field-independent basis, Debye-Ang):
   XX=           -126.5361   YY=           -153.9266   ZZ=           -137.8135
   XY=             -8.8681   XZ=            -19.5298   YZ=             -1.5811

 Normal termination of Gaussian 09 at Fri Oct  2 06:23:02 2020.
