 Gaussian 09, Revision D.01,

 -----------------
 #p b3lyp/6-31G(d)
 -----------------

 --------------------
 SM40_38.n.13.pdb.xyz
 --------------------
 Symbolic Z-matrix:
 Charge =  0 Multiplicity = 1

 SCF Done:  E(RB3LYP) =  -1714.03192692     A.U. after   15 cycles
 Normal termination of Gaussian 09 at Mon Sep 21 21:01:05 2020.
 Gaussian 09:  AM64L-G09RevD.01 24-Apr-2013

 ----------------------------------------------------------------------
 #p b3lyp/6-31G(d) scrf=(iefpcm,read,solvent=Water) geom=allcheck guess
 =read
 ----------------------------------------------------------------------

 Structure from the checkpoint file:  "SM40_38.n.13.pdb.xyz.mst.n.w.chk"
 --------------------
 SM40_38.n.13.pdb.xyz
 --------------------
 Charge =  0 Multiplicity = 1

                         Standard orientation:
 ---------------------------------------------------------------------
 Center     Atomic      Atomic             Coordinates (Angstroms)
 Number     Number       Type             X           Y           Z
 ---------------------------------------------------------------------
      1         16           0        2.079546    1.786363   -0.104467
      2          7           0        1.662421    0.359469   -0.850075
      3          6           0        0.771014   -0.696660   -0.314107
      4          6           0        1.326521   -1.233327    1.043768
      5         16           0        2.187535   -2.578077    0.166219
      6          6           0        1.090325   -1.973568   -1.161477
      7          8           0        3.606969   -2.263290   -0.092069
      8          8           0        1.855588   -3.931767    0.653578
      9          6           0       -0.710607   -0.279289   -0.321440
     10          6           0       -1.717441   -1.315889    0.211158
     11          6           0       -3.136541   -0.795844    0.141102
     12          6           0       -3.930392   -1.024319   -0.991233
     13          6           0       -5.229282   -0.519764   -1.069001
     14          6           0       -5.757738    0.224309   -0.011314
     15          6           0       -4.977639    0.457398    1.122631
     16          6           0       -3.678987   -0.049054    1.196357
     17          8           0        2.958909    2.453710   -1.075192
     18          8           0        2.594158    1.485379    1.234782
     19          1           0        1.576479    0.498237   -1.854467
     20          1           0        0.554902   -1.663578    1.680263
     21          1           0        1.975204   -0.561916    1.599893
     22          1           0        0.239107   -2.646143   -1.261923
     23          1           0        1.580839   -1.816890   -2.122069
     24          1           0       -0.972712   -0.027411   -1.354693
     25          1           0       -0.796746    0.643443    0.258401
     26          1           0       -1.478106   -1.565809    1.249283
     27          1           0       -1.643481   -2.243086   -0.367357
     28          1           0       -3.527000   -1.605769   -1.815119
     29          1           0       -5.829889   -0.711085   -1.953100
     30          1           0       -6.768700    0.613711   -0.069293
     31          1           0       -5.380205    1.029638    1.953262
     32          1           0       -3.079798    0.130230    2.084207
     33          7           0        0.652042    2.656011    0.135863
     34          6           0        0.078951    3.212666   -1.099762
     35          1           0       -0.928022    3.559908   -0.862660
     36          1           0        0.667263    4.051280   -1.488174
     37          1           0        0.002847    2.439090   -1.864207
     38          6           0        0.717022    3.635545    1.235206
     39          1           0        1.335022    4.506554    0.985675
     40          1           0       -0.304311    3.970565    1.424470
     41          1           0        1.106532    3.152630    2.128945
 ---------------------------------------------------------------------

 SCF Done:  E(RB3LYP) =  -1714.06367172     A.U. after   11 cycles

 The electronic state is 1-A.
 Alpha  occ. eigenvalues --  -89.14440 -89.09921 -19.16115 -19.15852 -19.15645
 Alpha  occ. eigenvalues --  -19.15429 -14.38306 -14.37998 -10.28101 -10.23389
 Alpha  occ. eigenvalues --  -10.22812 -10.22314 -10.22016 -10.20024 -10.19998
 Alpha  occ. eigenvalues --  -10.19750 -10.19134 -10.19124 -10.18987 -10.18980
 Alpha  occ. eigenvalues --  -10.18973  -8.16622  -8.12980  -6.13101  -6.13045
 Alpha  occ. eigenvalues --   -6.13036  -6.09428  -6.09331  -6.09236  -1.13608
 Alpha  occ. eigenvalues --   -1.10735  -1.01847  -1.00426  -0.95574  -0.94154
 Alpha  occ. eigenvalues --   -0.86202  -0.85584  -0.79630  -0.74488  -0.74295
 Alpha  occ. eigenvalues --   -0.72872  -0.72619  -0.71346  -0.67714  -0.62754
 Alpha  occ. eigenvalues --   -0.60696  -0.60592  -0.58557  -0.57384  -0.55296
 Alpha  occ. eigenvalues --   -0.53105  -0.51749  -0.51044  -0.50304  -0.49653
 Alpha  occ. eigenvalues --   -0.48792  -0.47296  -0.46871  -0.46518  -0.45529
 Alpha  occ. eigenvalues --   -0.45128  -0.44095  -0.43828  -0.43144  -0.42231
 Alpha  occ. eigenvalues --   -0.41901  -0.41621  -0.40914  -0.40682  -0.38936
 Alpha  occ. eigenvalues --   -0.38867  -0.37999  -0.36011  -0.35739  -0.35514
 Alpha  occ. eigenvalues --   -0.34271  -0.34253  -0.33687  -0.33315  -0.32937
 Alpha  occ. eigenvalues --   -0.32635  -0.31949  -0.30989  -0.29691  -0.29290
 Alpha  occ. eigenvalues --   -0.25892  -0.25317  -0.24538
 Alpha virt. eigenvalues --   -0.00463  -0.00395   0.03269   0.03502   0.04940
 Alpha virt. eigenvalues --    0.05721   0.06102   0.06931   0.08187   0.08828
 Alpha virt. eigenvalues --    0.09451   0.09947   0.10488   0.10960   0.11904

 Mulliken charges:
               1
     1  S    1.307560
     2  N   -0.719571
     3  C    0.156648
     4  C   -0.501786
     5  S    1.108831
     6  C   -0.494043
     7  O   -0.561934
     8  O   -0.559079
     9  C   -0.278485
    10  C   -0.380603
    11  C    0.158282
    12  C   -0.195514
    13  C   -0.149902
    14  C   -0.150642
    15  C   -0.149765
    16  C   -0.193989
    17  O   -0.564213
    18  O   -0.576169
    19  H    0.417507
    20  H    0.228440
    21  H    0.260502
    22  H    0.233245
    23  H    0.239707
    24  H    0.167188
    25  H    0.190132
    26  H    0.167292
    27  H    0.165508
    28  H    0.145402
    29  H    0.149912
    30  H    0.149121
    31  H    0.149951
    32  H    0.145225
    33  N   -0.519455
    34  C   -0.329298
    35  H    0.191544
    36  H    0.177875
    37  H    0.183461
    38  C   -0.323332
    39  H    0.169980
    40  H    0.186805
    41  H    0.197664
 Sum of Mulliken charges =   0.00000

 Dipole moment (field-independent basis, Debye):
    X=            -10.6967    Y=              4.7052    Z=             -2.9913  Tot=             12.0626
 Quadrupole moment (field-independent basis, Debye-Ang):
   XX=           -174.2444   YY=           -150.7405   ZZ=           -126.1299
   XY=              3.1703   XZ=             -0.9673   YZ=              9.8050

 Normal termination of Gaussian 09 at Mon Sep 21 21:06:07 2020.
