 Gaussian 09, Revision D.01,

 -----------------
 #p b3lyp/6-31G(d)
 -----------------

 ----------------
 SM40.n.7.pdb.xyz
 ----------------
 Symbolic Z-matrix:
 Charge =  0 Multiplicity = 1

 SCF Done:  E(RB3LYP) =  -1714.03217431     A.U. after   15 cycles
 Normal termination of Gaussian 09 at Thu Oct  1 22:18:27 2020.
 Gaussian 09:  AM64L-G09RevD.01 24-Apr-2013

 ----------------------------------------------------------------------
 #p b3lyp/6-31G(d) scrf=(iefpcm,read,solvent=Water) geom=allcheck guess
 =read
 ----------------------------------------------------------------------

 Structure from the checkpoint file:  "SM40.n.7.pdb.xyz.mst.n.w.chk"
 ----------------
 SM40.n.7.pdb.xyz
 ----------------
 Charge =  0 Multiplicity = 1

                         Standard orientation:
 ---------------------------------------------------------------------
 Center     Atomic      Atomic             Coordinates (Angstroms)
 Number     Number       Type             X           Y           Z
 ---------------------------------------------------------------------
      1          6           0       -0.101314    3.252082   -1.047818
      2          7           0       -0.687683    2.660058    0.164846
      3          6           0       -0.773302    3.610284    1.290394
      4         16           0       -2.101637    1.779788   -0.116349
      5          8           0       -2.645168    1.464140    1.208588
      6          8           0       -2.963075    2.446665   -1.102932
      7          7           0       -1.657827    0.360126   -0.859859
      8          6           0       -0.768622   -0.691706   -0.311185
      9          6           0       -1.070430   -1.967187   -1.166165
     10         16           0       -2.149573   -2.606396    0.157842
     11          8           0       -3.578101   -2.341966   -0.108383
     12          8           0       -1.771016   -3.947498    0.645865
     13          6           0       -1.339995   -1.231666    1.043333
     14          6           0        0.710850   -0.264968   -0.305920
     15          6           0        1.718976   -1.279203    0.265363
     16          6           0        3.140158   -0.768916    0.156229
     17          6           0        3.736022   -0.086153    1.224385
     18          6           0        5.036145    0.414029    1.121635
     19          6           0        5.762240    0.237094   -0.059087
     20          6           0        5.178938   -0.442508   -1.130592
     21          6           0        3.879365   -0.940199   -1.022230
     22          1           0        0.901425    3.595418   -0.790552
     23          1           0       -0.688413    4.097399   -1.423288
     24          1           0       -0.013372    2.499462   -1.832030
     25          1           0        0.244410    3.944559    1.502102
     26          1           0       -1.172580    3.102188    2.164841
     27          1           0       -1.391852    4.485245    1.055783
     28          1           0       -1.555788    0.501396   -1.865582
     29          1           0       -0.209315   -2.623330   -1.291778
     30          1           0       -1.578096   -1.804356   -2.115043
     31          1           0       -0.574621   -1.631783    1.708189
     32          1           0       -2.021685   -0.569477    1.570618
     33          1           0        0.785397    0.671036    0.252484
     34          1           0        0.985647   -0.036717   -1.342071
     35          1           0        1.635600   -2.236031   -0.261906
     36          1           0        1.492903   -1.472414    1.317890
     37          1           0        3.176365    0.048205    2.145910
     38          1           0        5.481158    0.935755    1.962800
     39          1           0        6.772808    0.622619   -0.142059
     40          1           0        5.736641   -0.589029   -2.050624
     41          1           0        3.435980   -1.472332   -1.859648
 ---------------------------------------------------------------------

 SCF Done:  E(RB3LYP) =  -1714.06366592     A.U. after   11 cycles

 The electronic state is 1-A.
 Alpha  occ. eigenvalues --  -89.14429 -89.09917 -19.16073 -19.15848 -19.15643
 Alpha  occ. eigenvalues --  -19.15437 -14.38312 -14.37984 -10.28109 -10.23344
 Alpha  occ. eigenvalues --  -10.22828 -10.22304 -10.21997 -10.20014 -10.19991
 Alpha  occ. eigenvalues --  -10.19737 -10.19140 -10.19130 -10.18995 -10.18986
 Alpha  occ. eigenvalues --  -10.18976  -8.16607  -8.12975  -6.13084  -6.13032
 Alpha  occ. eigenvalues --   -6.13021  -6.09423  -6.09327  -6.09231  -1.13574
 Alpha  occ. eigenvalues --   -1.10721  -1.01825  -1.00424  -0.95502  -0.94082
 Alpha  occ. eigenvalues --   -0.86145  -0.85535  -0.79605  -0.74481  -0.74276
 Alpha  occ. eigenvalues --   -0.72852  -0.72597  -0.71328  -0.67695  -0.62750
 Alpha  occ. eigenvalues --   -0.60650  -0.60580  -0.58512  -0.57361  -0.55254
 Alpha  occ. eigenvalues --   -0.53098  -0.51744  -0.51022  -0.50307  -0.49601
 Alpha  occ. eigenvalues --   -0.48759  -0.47296  -0.46846  -0.46464  -0.45513
 Alpha  occ. eigenvalues --   -0.45094  -0.44158  -0.43789  -0.43138  -0.42189
 Alpha  occ. eigenvalues --   -0.41899  -0.41587  -0.40899  -0.40635  -0.38935
 Alpha  occ. eigenvalues --   -0.38840  -0.37978  -0.35963  -0.35743  -0.35512
 Alpha  occ. eigenvalues --   -0.34266  -0.34225  -0.33667  -0.33296  -0.32892
 Alpha  occ. eigenvalues --   -0.32642  -0.31926  -0.30991  -0.29685  -0.29299
 Alpha  occ. eigenvalues --   -0.25843  -0.25309  -0.24545
 Alpha virt. eigenvalues --   -0.00495  -0.00361   0.03210   0.03458   0.04912
 Alpha virt. eigenvalues --    0.05715   0.06064   0.06931   0.08168   0.08842
 Alpha virt. eigenvalues --    0.09429   0.09909   0.10493   0.11018   0.11886

 Mulliken charges:
               1
     1  C   -0.328312
     2  N   -0.520567
     3  C   -0.322103
     4  S    1.307744
     5  O   -0.576507
     6  O   -0.563843
     7  N   -0.719807
     8  C    0.159023
     9  C   -0.494253
    10  S    1.108388
    11  O   -0.561615
    12  O   -0.559169
    13  C   -0.503358
    14  C   -0.279424
    15  C   -0.379547
    16  C    0.158884
    17  C   -0.196096
    18  C   -0.149745
    19  C   -0.150758
    20  C   -0.149813
    21  C   -0.194558
    22  H    0.191380
    23  H    0.178015
    24  H    0.182849
    25  H    0.186103
    26  H    0.197747
    27  H    0.170417
    28  H    0.417560
    29  H    0.233116
    30  H    0.239834
    31  H    0.228782
    32  H    0.261226
    33  H    0.190455
    34  H    0.166144
    35  H    0.165229
    36  H    0.166933
    37  H    0.145089
    38  H    0.150103
    39  H    0.149089
    40  H    0.149963
    41  H    0.145396
 Sum of Mulliken charges =   0.00000

 Dipole moment (field-independent basis, Debye):
    X=             10.5502    Y=              4.9288    Z=             -2.7968  Tot=             11.9759
 Quadrupole moment (field-independent basis, Debye-Ang):
   XX=           -173.8440   YY=           -151.6352   ZZ=           -125.7142
   XY=             -3.2087   XZ=              0.5776   YZ=              9.7751

 Normal termination of Gaussian 09 at Thu Oct  1 22:23:28 2020.
