 Gaussian 09, Revision D.01,

 -----------------
 #p b3lyp/6-31G(d)
 -----------------

 -----------------
 SM40.n.12.pdb.xyz
 -----------------
 Symbolic Z-matrix:
 Charge =  0 Multiplicity = 1

 SCF Done:  E(RB3LYP) =  -1714.03533571     A.U. after   15 cycles
 Normal termination of Gaussian 09 at Fri Oct  2 06:17:40 2020.
 Gaussian 09:  AM64L-G09RevD.01 24-Apr-2013

 ----------------------------------------------------------------------
 #p b3lyp/6-31G(d) scrf=(iefpcm,read,solvent=n-Octanol) geom=allcheck g
 uess=read
 ----------------------------------------------------------------------

 Structure from the checkpoint file:  "SM40.n.12.pdb.xyz.mst.n.o.chk"
 -----------------
 SM40.n.12.pdb.xyz
 -----------------
 Charge =  0 Multiplicity = 1

                         Standard orientation:
 ---------------------------------------------------------------------
 Center     Atomic      Atomic             Coordinates (Angstroms)
 Number     Number       Type             X           Y           Z
 ---------------------------------------------------------------------
      1          6           0        2.494280   -2.191634    1.675892
      2          7           0        2.765064   -0.829831    1.194740
      3          6           0        3.818361   -0.134020    1.953131
      4         16           0        2.927929   -0.722144   -0.489818
      5          8           0        3.418091    0.631412   -0.751300
      6          8           0        3.633481   -1.887881   -1.029791
      7          7           0        1.386835   -0.860551   -1.088936
      8          6           0        0.245783    0.054429   -0.916189
      9          6           0        0.589258    1.519898   -1.351522
     10         16           0       -0.001672    2.162638    0.252324
     11          8           0        1.046465    2.814820    1.053644
     12          8           0       -1.317290    2.822805    0.125127
     13          6           0       -0.149508    0.368428    0.573970
     14          6           0       -0.880545   -0.563356   -1.772291
     15          6           0       -2.262804    0.128263   -1.730243
     16          6           0       -3.189533   -0.367039   -0.633285
     17          6           0       -3.701668    0.511537    0.328652
     18          6           0       -4.576169    0.057720    1.317860
     19          6           0       -4.953315   -1.284473    1.360346
     20          6           0       -4.447414   -2.170902    0.406684
     21          6           0       -3.573720   -1.714184   -0.579534
     22          1           0        2.222957   -2.120087    2.730291
     23          1           0        3.361116   -2.854227    1.568689
     24          1           0        1.649207   -2.617900    1.133640
     25          1           0        3.492018   -0.095817    2.994261
     26          1           0        3.922727    0.879053    1.572669
     27          1           0        4.784696   -0.651219    1.903324
     28          1           0        1.157092   -1.826360   -1.302830
     29          1           0        0.016744    1.904401   -2.195212
     30          1           0        1.656254    1.697322   -1.472276
     31          1           0       -1.154066    0.071410    0.879388
     32          1           0        0.610418    0.054461    1.290435
     33          1           0       -1.011332   -1.608117   -1.470561
     34          1           0       -0.508822   -0.578050   -2.802243
     35          1           0       -2.738924   -0.061444   -2.699729
     36          1           0       -2.154654    1.214171   -1.650235
     37          1           0       -3.393819    1.551863    0.306063
     38          1           0       -4.960929    0.754447    2.055406
     39          1           0       -5.633406   -1.638632    2.127745
     40          1           0       -4.734704   -3.217156    0.428863
     41          1           0       -3.189960   -2.410590   -1.320671
 ---------------------------------------------------------------------

 SCF Done:  E(RB3LYP) =  -1714.06400655     A.U. after   11 cycles

 The electronic state is 1-A.
 Alpha  occ. eigenvalues --  -89.14522 -89.09477 -19.16102 -19.15931 -19.15125
 Alpha  occ. eigenvalues --  -19.15113 -14.38580 -14.38316 -10.28407 -10.23050
 Alpha  occ. eigenvalues --  -10.22711 -10.22518 -10.22391 -10.21274 -10.20048
 Alpha  occ. eigenvalues --  -10.20023 -10.19278 -10.19135 -10.19129 -10.19058
 Alpha  occ. eigenvalues --  -10.18672  -8.16695  -8.12557  -6.13182  -6.13118
 Alpha  occ. eigenvalues --   -6.13104  -6.08996  -6.08905  -6.08820  -1.13764
 Alpha  occ. eigenvalues --   -1.10388  -1.02067  -1.00137  -0.95720  -0.94392
 Alpha  occ. eigenvalues --   -0.86311  -0.85420  -0.79754  -0.75052  -0.74527
 Alpha  occ. eigenvalues --   -0.73260  -0.72312  -0.71601  -0.67958  -0.63034
 Alpha  occ. eigenvalues --   -0.61177  -0.60617  -0.58183  -0.57394  -0.55359
 Alpha  occ. eigenvalues --   -0.53594  -0.51790  -0.51596  -0.50103  -0.49982
 Alpha  occ. eigenvalues --   -0.48837  -0.47683  -0.46585  -0.46267  -0.45686
 Alpha  occ. eigenvalues --   -0.45054  -0.44943  -0.43801  -0.43238  -0.42681
 Alpha  occ. eigenvalues --   -0.41870  -0.41633  -0.41212  -0.40753  -0.40299
 Alpha  occ. eigenvalues --   -0.39380  -0.37186  -0.36753  -0.36078  -0.35528
 Alpha  occ. eigenvalues --   -0.33986  -0.33744  -0.33683  -0.33452  -0.32698
 Alpha  occ. eigenvalues --   -0.32093  -0.31975  -0.30670  -0.30294  -0.28193
 Alpha  occ. eigenvalues --   -0.26250  -0.25292  -0.24587
 Alpha virt. eigenvalues --   -0.00774  -0.00393   0.03058   0.03980   0.04859
 Alpha virt. eigenvalues --    0.05317   0.05552   0.05928   0.07136   0.08567
 Alpha virt. eigenvalues --    0.09536   0.09995   0.10883   0.11330   0.12600

 Mulliken charges:
               1
     1  C   -0.324149
     2  N   -0.534058
     3  C   -0.323234
     4  S    1.324311
     5  O   -0.558703
     6  O   -0.541757
     7  N   -0.738427
     8  C    0.223277
     9  C   -0.513673
    10  S    1.116586
    11  O   -0.534509
    12  O   -0.553991
    13  C   -0.523415
    14  C   -0.316668
    15  C   -0.378878
    16  C    0.146377
    17  C   -0.212345
    18  C   -0.137392
    19  C   -0.140306
    20  C   -0.137731
    21  C   -0.187747
    22  H    0.185845
    23  H    0.180663
    24  H    0.170310
    25  H    0.179488
    26  H    0.207659
    27  H    0.165746
    28  H    0.387139
    29  H    0.221032
    30  H    0.258104
    31  H    0.228227
    32  H    0.244641
    33  H    0.161722
    34  H    0.176629
    35  H    0.173414
    36  H    0.177497
    37  H    0.168701
    38  H    0.141869
    39  H    0.140453
    40  H    0.140813
    41  H    0.136479
 Sum of Mulliken charges =   0.00000

 Dipole moment (field-independent basis, Debye):
    X=             -2.6632    Y=             -6.5658    Z=              0.6444  Tot=              7.1146
 Quadrupole moment (field-independent basis, Debye-Ang):
   XX=           -151.9985   YY=           -148.9993   ZZ=           -128.0766
   XY=              3.8887   XZ=             11.4722   YZ=             -9.7747

 Normal termination of Gaussian 09 at Fri Oct  2 06:22:41 2020.
