 Gaussian 09, Revision D.01,

 -----------------
 #p b3lyp/6-31G(d)
 -----------------

 ----------------
 SM40.n.2.pdb.xyz
 ----------------
 Symbolic Z-matrix:
 Charge =  0 Multiplicity = 1

 SCF Done:  E(RB3LYP) =  -1714.03983902     A.U. after   15 cycles
 Normal termination of Gaussian 09 at Fri Oct  2 06:19:33 2020.
 Gaussian 09:  AM64L-G09RevD.01 24-Apr-2013

 ----------------------------------------------------------------------
 #p b3lyp/6-31G(d) scrf=(iefpcm,read,solvent=n-Octanol) geom=allcheck g
 uess=read
 ----------------------------------------------------------------------

 Structure from the checkpoint file:  "SM40.n.2.pdb.xyz.mst.n.o.chk"
 ----------------
 SM40.n.2.pdb.xyz
 ----------------
 Charge =  0 Multiplicity = 1

                         Standard orientation:
 ---------------------------------------------------------------------
 Center     Atomic      Atomic             Coordinates (Angstroms)
 Number     Number       Type             X           Y           Z
 ---------------------------------------------------------------------
      1          6           0        1.456277    3.540968    0.982296
      2          7           0        0.573919    2.375284    0.801887
      3          6           0       -0.717684    2.499999    1.492007
      4         16           0        0.449773    1.849993   -0.793838
      5          8           0       -0.632691    2.509332   -1.532252
      6          8           0        1.816037    1.889728   -1.326383
      7          7           0       -0.098622    0.285551   -0.562152
      8          6           0        0.757991   -0.868195   -0.274638
      9          6           0        1.616816   -0.685495    1.017043
     10         16           0        3.039441   -1.455783    0.173629
     11          8           0        4.274130   -0.657144    0.208264
     12          8           0        3.105391   -2.899734    0.471483
     13          6           0        1.956601   -1.132810   -1.262231
     14          6           0       -0.115933   -2.131830   -0.205373
     15          6           0       -1.253692   -2.145356    0.825446
     16          6           0       -2.531544   -1.435882    0.420949
     17          6           0       -3.116008   -1.650254   -0.835812
     18          6           0       -4.313473   -1.024720   -1.184828
     19          6           0       -4.953871   -0.176939   -0.280611
     20          6           0       -4.388296    0.035859    0.977019
     21          6           0       -3.188760   -0.588439    1.320363
     22          1           0        1.643588    3.640497    2.052463
     23          1           0        1.003178    4.470297    0.614815
     24          1           0        2.398941    3.364033    0.468052
     25          1           0       -0.512608    2.591163    2.560315
     26          1           0       -1.307446    1.600022    1.319436
     27          1           0       -1.282843    3.377442    1.156390
     28          1           0       -0.853779    0.102305   -1.219940
     29          1           0        1.281126   -1.217786    1.906662
     30          1           0        1.824032    0.360595    1.242900
     31          1           0        1.847155   -1.983450   -1.936162
     32          1           0        2.291454   -0.234698   -1.779297
     33          1           0        0.570546   -2.956146    0.009663
     34          1           0       -0.520354   -2.326736   -1.203014
     35          1           0       -0.901655   -1.737684    1.781047
     36          1           0       -1.487519   -3.199087    1.022023
     37          1           0       -2.636228   -2.316466   -1.546872
     38          1           0       -4.746911   -1.202821   -2.163667
     39          1           0       -5.884418    0.309805   -0.552369
     40          1           0       -4.878382    0.690160    1.691064
     41          1           0       -2.755846   -0.423538    2.303008
 ---------------------------------------------------------------------

 SCF Done:  E(RB3LYP) =  -1714.06826323     A.U. after   11 cycles

 The electronic state is 1-A.
 Alpha  occ. eigenvalues --  -89.14357 -89.09555 -19.16100 -19.15870 -19.15234
 Alpha  occ. eigenvalues --  -19.14954 -14.38525 -14.38420 -10.28169 -10.22993
 Alpha  occ. eigenvalues --  -10.22658 -10.22552 -10.22459 -10.20968 -10.20451
 Alpha  occ. eigenvalues --  -10.20255 -10.19543 -10.19491 -10.19380 -10.19295
 Alpha  occ. eigenvalues --  -10.19244  -8.16586  -8.12621  -6.13077  -6.13010
 Alpha  occ. eigenvalues --   -6.12970  -6.09057  -6.08973  -6.08891  -1.13647
 Alpha  occ. eigenvalues --   -1.10445  -1.01859  -1.00182  -0.95869  -0.94490
 Alpha  occ. eigenvalues --   -0.86386  -0.85933  -0.80041  -0.75032  -0.74723
 Alpha  occ. eigenvalues --   -0.73163  -0.72602  -0.71679  -0.67817  -0.63550
 Alpha  occ. eigenvalues --   -0.61125  -0.60683  -0.58564  -0.57520  -0.54694
 Alpha  occ. eigenvalues --   -0.53274  -0.52121  -0.51787  -0.50615  -0.49217
 Alpha  occ. eigenvalues --   -0.48828  -0.47148  -0.46781  -0.46078  -0.45626
 Alpha  occ. eigenvalues --   -0.45553  -0.44727  -0.44239  -0.43750  -0.42683
 Alpha  occ. eigenvalues --   -0.42317  -0.42115  -0.41431  -0.40623  -0.39244
 Alpha  occ. eigenvalues --   -0.38968  -0.38516  -0.36897  -0.35984  -0.35557
 Alpha  occ. eigenvalues --   -0.34756  -0.34243  -0.33820  -0.33400  -0.32776
 Alpha  occ. eigenvalues --   -0.32211  -0.31820  -0.30689  -0.30153  -0.28012
 Alpha  occ. eigenvalues --   -0.26473  -0.25624  -0.24629
 Alpha virt. eigenvalues --   -0.01039  -0.00663   0.03200   0.04741   0.05319
 Alpha virt. eigenvalues --    0.05860   0.06014   0.06813   0.07288   0.08381
 Alpha virt. eigenvalues --    0.09168   0.09715   0.09813   0.10932   0.12165

 Mulliken charges:
               1
     1  C   -0.330377
     2  N   -0.528894
     3  C   -0.336027
     4  S    1.332724
     5  O   -0.541552
     6  O   -0.560403
     7  N   -0.735429
     8  C    0.197263
     9  C   -0.503297
    10  S    1.103334
    11  O   -0.528052
    12  O   -0.556023
    13  C   -0.505196
    14  C   -0.325656
    15  C   -0.349330
    16  C    0.176961
    17  C   -0.213897
    18  C   -0.132733
    19  C   -0.138348
    20  C   -0.133591
    21  C   -0.200210
    22  H    0.183379
    23  H    0.169106
    24  H    0.204327
    25  H    0.180441
    26  H    0.197893
    27  H    0.172947
    28  H    0.377446
    29  H    0.220118
    30  H    0.241738
    31  H    0.217475
    32  H    0.248784
    33  H    0.187650
    34  H    0.167264
    35  H    0.153965
    36  H    0.176604
    37  H    0.142598
    38  H    0.144464
    39  H    0.142967
    40  H    0.143342
    41  H    0.136227
 Sum of Mulliken charges =   0.00000

 Dipole moment (field-independent basis, Debye):
    X=             -6.9309    Y=              0.6515    Z=              2.5215  Tot=              7.4040
 Quadrupole moment (field-independent basis, Debye-Ang):
   XX=           -163.9114   YY=           -141.4001   ZZ=           -130.5125
   XY=             10.5170   XZ=             -0.5936   YZ=             18.4361

 Normal termination of Gaussian 09 at Fri Oct  2 06:24:35 2020.
