 Gaussian 09, Revision D.01,

 -----------------
 #p b3lyp/6-31G(d)
 -----------------

 -----------------
 SM40.n.10.pdb.xyz
 -----------------
 Symbolic Z-matrix:
 Charge =  0 Multiplicity = 1

 SCF Done:  E(RB3LYP) =  -1714.03813683     A.U. after   16 cycles
 Normal termination of Gaussian 09 at Thu Oct  1 22:10:08 2020.
 Gaussian 09:  AM64L-G09RevD.01 24-Apr-2013

 ----------------------------------------------------------------------
 #p b3lyp/6-31G(d) scrf=(iefpcm,read,solvent=Water) geom=allcheck guess
 =read
 ----------------------------------------------------------------------

 Structure from the checkpoint file:  "SM40.n.10.pdb.xyz.mst.n.w.chk"
 -----------------
 SM40.n.10.pdb.xyz
 -----------------
 Charge =  0 Multiplicity = 1

                         Standard orientation:
 ---------------------------------------------------------------------
 Center     Atomic      Atomic             Coordinates (Angstroms)
 Number     Number       Type             X           Y           Z
 ---------------------------------------------------------------------
      1          6           0       -2.264468    2.586821   -0.857810
      2          7           0       -1.205465    2.724155    0.152833
      3          6           0       -1.665752    2.730714    1.548452
      4         16           0        0.256437    2.012000   -0.142250
      5          8           0        0.517199    2.124807   -1.586551
      6          8           0        1.242761    2.582485    0.781811
      7          7           0        0.017072    0.403005    0.338869
      8          6           0        1.092441   -0.608580    0.312192
      9          6           0        2.317151   -0.224310    1.209158
     10         16           0        3.453417   -0.757643   -0.112991
     11          8           0        4.414630    0.278295   -0.538964
     12          8           0        3.959211   -2.129114    0.113833
     13          6           0        1.884251   -0.759364   -1.042319
     14          6           0        0.507873   -1.951498    0.798135
     15          6           0       -0.527342   -2.654641   -0.099610
     16          6           0       -1.928435   -2.072954   -0.106496
     17          6           0       -2.533480   -1.679767   -1.308530
     18          6           0       -3.837399   -1.176561   -1.326178
     19          6           0       -4.557223   -1.058274   -0.137024
     20          6           0       -3.966130   -1.446229    1.068879
     21          6           0       -2.665287   -1.949760    1.082597
     22          1           0       -2.942205    3.434596   -0.737578
     23          1           0       -2.832989    1.656796   -0.738438
     24          1           0       -1.822656    2.624507   -1.851232
     25          1           0       -2.363519    3.561901    1.663332
     26          1           0       -0.815628    2.891672    2.209066
     27          1           0       -2.170416    1.795450    1.814499
     28          1           0       -0.814844    0.058146   -0.147233
     29          1           0        2.423623   -0.783205    2.138578
     30          1           0        2.414344    0.847144    1.371561
     31          1           0        1.714388   -1.669716   -1.616197
     32          1           0        1.822891    0.122376   -1.680752
     33          1           0        0.093267   -1.790943    1.797655
     34          1           0        1.358470   -2.628051    0.918113
     35          1           0       -0.582850   -3.693048    0.249272
     36          1           0       -0.154801   -2.706354   -1.127891
     37          1           0       -1.976770   -1.775705   -2.236517
     38          1           0       -4.288963   -0.882581   -2.268555
     39          1           0       -5.570409   -0.670062   -0.147177
     40          1           0       -4.519768   -1.362241    1.997739
     41          1           0       -2.217686   -2.255877    2.023989
 ---------------------------------------------------------------------

 SCF Done:  E(RB3LYP) =  -1714.06128974     A.U. after   11 cycles

 The electronic state is 1-A.
 Alpha  occ. eigenvalues --  -89.14805 -89.10004 -19.16354 -19.16289 -19.15766
 Alpha  occ. eigenvalues --  -19.15554 -14.38817 -14.38463 -10.28107 -10.22989
 Alpha  occ. eigenvalues --  -10.22789 -10.22572 -10.22445 -10.20588 -10.20518
 Alpha  occ. eigenvalues --  -10.19986 -10.19601 -10.19573 -10.19540 -10.19452
 Alpha  occ. eigenvalues --  -10.19417  -8.17009  -8.13077  -6.13479  -6.13439
 Alpha  occ. eigenvalues --   -6.13422  -6.09526  -6.09428  -6.09330  -1.13949
 Alpha  occ. eigenvalues --   -1.10808  -1.02050  -1.00540  -0.96073  -0.94611
 Alpha  occ. eigenvalues --   -0.86356  -0.85998  -0.79865  -0.75017  -0.74745
 Alpha  occ. eigenvalues --   -0.73289  -0.72484  -0.72296  -0.67699  -0.62954
 Alpha  occ. eigenvalues --   -0.61455  -0.60957  -0.58494  -0.57290  -0.55417
 Alpha  occ. eigenvalues --   -0.52919  -0.51945  -0.51681  -0.50418  -0.49576
 Alpha  occ. eigenvalues --   -0.49536  -0.47529  -0.46876  -0.46107  -0.45831
 Alpha  occ. eigenvalues --   -0.45485  -0.45093  -0.43893  -0.43793  -0.42653
 Alpha  occ. eigenvalues --   -0.42238  -0.41752  -0.41306  -0.40135  -0.39469
 Alpha  occ. eigenvalues --   -0.39033  -0.38713  -0.36723  -0.36434  -0.35915
 Alpha  occ. eigenvalues --   -0.35005  -0.34154  -0.33993  -0.33421  -0.33234
 Alpha  occ. eigenvalues --   -0.32621  -0.32239  -0.30948  -0.30004  -0.28072
 Alpha  occ. eigenvalues --   -0.27104  -0.25799  -0.25011
 Alpha virt. eigenvalues --   -0.01303  -0.00873   0.02872   0.04416   0.04944
 Alpha virt. eigenvalues --    0.05272   0.05932   0.06331   0.07663   0.08863
 Alpha virt. eigenvalues --    0.09036   0.09255   0.10802   0.10947   0.12696

 Mulliken charges:
               1
     1  C   -0.336804
     2  N   -0.519604
     3  C   -0.321538
     4  S    1.301699
     5  O   -0.560414
     6  O   -0.571639
     7  N   -0.718431
     8  C    0.162784
     9  C   -0.500020
    10  S    1.105899
    11  O   -0.557019
    12  O   -0.572083
    13  C   -0.510161
    14  C   -0.296444
    15  C   -0.364864
    16  C    0.123385
    17  C   -0.213937
    18  C   -0.137996
    19  C   -0.146365
    20  C   -0.143066
    21  C   -0.182386
    22  H    0.195457
    23  H    0.172943
    24  H    0.204896
    25  H    0.191898
    26  H    0.199722
    27  H    0.174506
    28  H    0.368388
    29  H    0.235810
    30  H    0.253323
    31  H    0.235922
    32  H    0.243302
    33  H    0.181852
    34  H    0.180467
    35  H    0.184700
    36  H    0.164136
    37  H    0.153413
    38  H    0.155848
    39  H    0.154132
    40  H    0.154964
    41  H    0.153329
 Sum of Mulliken charges =   0.00000

 Dipole moment (field-independent basis, Debye):
    X=            -12.5466    Y=             -2.5730    Z=              2.1950  Tot=             12.9945
 Quadrupole moment (field-independent basis, Debye-Ang):
   XX=           -163.0794   YY=           -146.3062   ZZ=           -129.2825
   XY=             -8.7223   XZ=              4.0985   YZ=              3.5325

 Normal termination of Gaussian 09 at Thu Oct  1 22:15:32 2020.
