 Gaussian 09, Revision D.01,

 -----------------
 #p b3lyp/6-31G(d)
 -----------------

 -----------------
 SM40.n.21.pdb.xyz
 -----------------
 Symbolic Z-matrix:
 Charge =  0 Multiplicity = 1

 SCF Done:  E(RB3LYP) =  -1714.03686653     A.U. after   15 cycles
 Normal termination of Gaussian 09 at Fri Oct  2 02:38:05 2020.
 Gaussian 09:  AM64L-G09RevD.01 24-Apr-2013

 ----------------------------------------------------------------------
 #p b3lyp/6-31G(d) scrf=(iefpcm,read,solvent=Water) geom=allcheck guess
 =read
 ----------------------------------------------------------------------

 Structure from the checkpoint file:  "SM40.n.21.pdb.xyz.mst.n.w.chk"
 -----------------
 SM40.n.21.pdb.xyz
 -----------------
 Charge =  0 Multiplicity = 1

                         Standard orientation:
 ---------------------------------------------------------------------
 Center     Atomic      Atomic             Coordinates (Angstroms)
 Number     Number       Type             X           Y           Z
 ---------------------------------------------------------------------
      1          6           0        3.935642   -1.506699    1.397236
      2          7           0        3.789514   -0.818147    0.105185
      3          6           0        4.796506   -1.204676   -0.897056
      4         16           0        2.219931   -0.728026   -0.462598
      5          8           0        2.293421   -0.201348   -1.835412
      6          8           0        1.435732   -1.957506   -0.260807
      7          7           0        1.648474    0.409506    0.638818
      8          6           0        0.186909    0.651354    0.776676
      9          6           0       -0.524041    0.936500   -0.597075
     10         16           0       -0.395828    2.729975   -0.295599
     11          8           0        0.782674    3.320632   -0.962666
     12          8           0       -1.676674    3.458036   -0.364519
     13          6           0        0.022639    2.090518    1.365698
     14          6           0       -0.414508   -0.454365    1.670328
     15          6           0       -1.938429   -0.448306    1.906356
     16          6           0       -2.793515   -0.987632    0.773705
     17          6           0       -2.512354   -2.227895    0.181420
     18          6           0       -3.321008   -2.738974   -0.833570
     19          6           0       -4.433031   -2.016377   -1.277188
     20          6           0       -4.725368   -0.781672   -0.696529
     21          6           0       -3.911949   -0.274766    0.319401
     22          1           0        4.930484   -1.270700    1.780398
     23          1           0        3.835902   -2.593451    1.301228
     24          1           0        3.191091   -1.127851    2.094614
     25          1           0        5.774272   -0.978268   -0.467781
     26          1           0        4.657499   -0.614774   -1.800380
     27          1           0        4.756844   -2.272715   -1.141126
     28          1           0        2.194005    1.262478    0.500084
     29          1           0       -1.573362    0.644828   -0.616138
     30          1           0       -0.003213    0.603302   -1.492799
     31          1           0       -0.843630    2.186686    2.021062
     32          1           0        0.900327    2.543885    1.825694
     33          1           0        0.090393   -0.364514    2.637253
     34          1           0       -0.116885   -1.415139    1.251147
     35          1           0       -2.294685    0.550444    2.183908
     36          1           0       -2.108765   -1.072286    2.791441
     37          1           0       -1.651012   -2.796736    0.516610
     38          1           0       -3.085333   -3.701064   -1.277547
     39          1           0       -5.062971   -2.412194   -2.067361
     40          1           0       -5.585251   -0.211350   -1.032540
     41          1           0       -4.143461    0.688162    0.766199
 ---------------------------------------------------------------------

 SCF Done:  E(RB3LYP) =  -1714.06112073     A.U. after   11 cycles

 The electronic state is 1-A.
 Alpha  occ. eigenvalues --  -89.14227 -89.10073 -19.15907 -19.15904 -19.15880
 Alpha  occ. eigenvalues --  -19.15724 -14.38203 -14.38111 -10.28054 -10.23589
 Alpha  occ. eigenvalues --  -10.22828 -10.22073 -10.22037 -10.20077 -10.19697
 Alpha  occ. eigenvalues --  -10.19668 -10.19222 -10.19204 -10.19049 -10.19032
 Alpha  occ. eigenvalues --  -10.18976  -8.16472  -8.13151  -6.12945  -6.12906
 Alpha  occ. eigenvalues --   -6.12862  -6.09601  -6.09499  -6.09402  -1.13363
 Alpha  occ. eigenvalues --   -1.11000  -1.01399  -1.00747  -0.95778  -0.94218
 Alpha  occ. eigenvalues --   -0.86175  -0.85387  -0.79420  -0.74733  -0.74431
 Alpha  occ. eigenvalues --   -0.72741  -0.72615  -0.71698  -0.67265  -0.62565
 Alpha  occ. eigenvalues --   -0.60773  -0.60264  -0.58602  -0.56792  -0.54951
 Alpha  occ. eigenvalues --   -0.52697  -0.51839  -0.51152  -0.50588  -0.49623
 Alpha  occ. eigenvalues --   -0.48685  -0.47587  -0.46436  -0.46336  -0.45674
 Alpha  occ. eigenvalues --   -0.45074  -0.44562  -0.43715  -0.43547  -0.42115
 Alpha  occ. eigenvalues --   -0.41669  -0.41405  -0.40838  -0.40348  -0.39068
 Alpha  occ. eigenvalues --   -0.38865  -0.37167  -0.36902  -0.36320  -0.35719
 Alpha  occ. eigenvalues --   -0.35157  -0.34005  -0.33705  -0.33100  -0.32848
 Alpha  occ. eigenvalues --   -0.32567  -0.31459  -0.31209  -0.29871  -0.28233
 Alpha  occ. eigenvalues --   -0.26360  -0.25422  -0.24523
 Alpha virt. eigenvalues --   -0.00730  -0.00541   0.03166   0.03786   0.04513
 Alpha virt. eigenvalues --    0.05812   0.06109   0.06821   0.07975   0.09200
 Alpha virt. eigenvalues --    0.09820   0.10143   0.10800   0.11103   0.11824

 Mulliken charges:
               1
     1  C   -0.324373
     2  N   -0.529349
     3  C   -0.323843
     4  S    1.312526
     5  O   -0.568999
     6  O   -0.565726
     7  N   -0.717573
     8  C    0.156009
     9  C   -0.504891
    10  S    1.101261
    11  O   -0.566100
    12  O   -0.553934
    13  C   -0.506144
    14  C   -0.284514
    15  C   -0.372288
    16  C    0.147491
    17  C   -0.191630
    18  C   -0.147910
    19  C   -0.151621
    20  C   -0.142181
    21  C   -0.209107
    22  H    0.189015
    23  H    0.174665
    24  H    0.194850
    25  H    0.188750
    26  H    0.198554
    27  H    0.172993
    28  H    0.404746
    29  H    0.229771
    30  H    0.245999
    31  H    0.237942
    32  H    0.242453
    33  H    0.168694
    34  H    0.204070
    35  H    0.158521
    36  H    0.181452
    37  H    0.150226
    38  H    0.151226
    39  H    0.149997
    40  H    0.151293
    41  H    0.147679
 Sum of Mulliken charges =   0.00000

 Dipole moment (field-independent basis, Debye):
    X=              3.1795    Y=             -3.9358    Z=              6.9764  Tot=              8.6180
 Quadrupole moment (field-independent basis, Debye-Ang):
   XX=           -114.7659   YY=           -158.8856   ZZ=           -134.4957
   XY=             -1.2874   XZ=              9.5272   YZ=             11.6710

 Normal termination of Gaussian 09 at Fri Oct  2 02:43:07 2020.
