 Gaussian 09, Revision D.01,

 -----------------
 #p b3lyp/6-31G(d)
 -----------------

 ----------------
 SM40.n.8.pdb.xyz
 ----------------
 Symbolic Z-matrix:
 Charge =  0 Multiplicity = 1

 SCF Done:  E(RB3LYP) =  -1714.03550900     A.U. after   15 cycles
 Normal termination of Gaussian 09 at Fri Oct  2 06:17:19 2020.
 Gaussian 09:  AM64L-G09RevD.01 24-Apr-2013

 ----------------------------------------------------------------------
 #p b3lyp/6-31G(d) scrf=(iefpcm,read,solvent=n-Octanol) geom=allcheck g
 uess=read
 ----------------------------------------------------------------------

 Structure from the checkpoint file:  "SM40.n.8.pdb.xyz.mst.n.o.chk"
 ----------------
 SM40.n.8.pdb.xyz
 ----------------
 Charge =  0 Multiplicity = 1

                         Standard orientation:
 ---------------------------------------------------------------------
 Center     Atomic      Atomic             Coordinates (Angstroms)
 Number     Number       Type             X           Y           Z
 ---------------------------------------------------------------------
      1          6           0        0.436280   -3.318198   -0.788703
      2          7           0        1.073537   -2.561949    0.297510
      3          6           0        1.306196   -3.365086    1.509709
      4         16           0        2.402503   -1.637152   -0.200008
      5          8           0        3.051276   -1.190110    1.031781
      6          8           0        3.174262   -2.324559   -1.238610
      7          7           0        1.779437   -0.301205   -0.981919
      8          6           0        0.827968    0.680159   -0.420627
      9          6           0        0.978521    1.993416   -1.263157
     10         16           0        1.473396    2.923511    0.229647
     11          8           0        2.856581    3.419550    0.167184
     12          8           0        0.403144    3.820689    0.697166
     13          6           0        1.339267    1.249753    0.948232
     14          6           0       -0.614021    0.137308   -0.394285
     15          6           0       -1.697977    1.087729    0.142374
     16          6           0       -3.068386    0.447564    0.093727
     17          6           0       -3.551105   -0.288870    1.181222
     18          6           0       -4.800077   -0.907479    1.131077
     19          6           0       -5.589776   -0.797463   -0.015581
     20          6           0       -5.120529   -0.063217   -1.105855
     21          6           0       -3.870312    0.553097   -1.049863
     22          1           0       -0.516753   -3.695436   -0.412739
     23          1           0        1.050831   -4.158796   -1.129775
     24          1           0        0.230449   -2.661717   -1.634701
     25          1           0        0.331744   -3.716167    1.854834
     26          1           0        1.756288   -2.738645    2.275435
     27          1           0        1.948387   -4.234632    1.321228
     28          1           0        1.652617   -0.493084   -1.973310
     29          1           0        0.063571    2.375825   -1.714378
     30          1           0        1.791215    1.958468   -1.988731
     31          1           0        0.628376    1.206549    1.773331
     32          1           0        2.310383    0.860418    1.248114
     33          1           0       -0.606615   -0.780759    0.198552
     34          1           0       -0.874691   -0.150511   -1.419450
     35          1           0       -1.708137    2.018566   -0.435287
     36          1           0       -1.469192    1.367803    1.174198
     37          1           0       -2.944569   -0.372060    2.079131
     38          1           0       -5.158845   -1.470087    1.987077
     39          1           0       -6.563552   -1.274786   -0.056574
     40          1           0       -5.729368    0.033535   -1.999319
     41          1           0       -3.515723    1.129031   -1.900769
 ---------------------------------------------------------------------

 SCF Done:  E(RB3LYP) =  -1714.06648689     A.U. after   11 cycles

 The electronic state is 1-A.
 Alpha  occ. eigenvalues --  -89.14440 -89.09842 -19.16085 -19.15873 -19.15410
 Alpha  occ. eigenvalues --  -19.15312 -14.38698 -14.38325 -10.28444 -10.23597
 Alpha  occ. eigenvalues --  -10.23097 -10.23029 -10.22561 -10.20478 -10.20083
 Alpha  occ. eigenvalues --  -10.20026 -10.19232 -10.19222 -10.19123 -10.19093
 Alpha  occ. eigenvalues --  -10.19076  -8.16631  -8.12895  -6.13110  -6.13055
 Alpha  occ. eigenvalues --   -6.13040  -6.09328  -6.09250  -6.09167  -1.13739
 Alpha  occ. eigenvalues --   -1.10743  -1.02057  -1.00477  -0.95751  -0.94467
 Alpha  occ. eigenvalues --   -0.86341  -0.85626  -0.79799  -0.74613  -0.74415
 Alpha  occ. eigenvalues --   -0.73397  -0.73141  -0.71649  -0.67985  -0.63160
 Alpha  occ. eigenvalues --   -0.60782  -0.60749  -0.58667  -0.57558  -0.55648
 Alpha  occ. eigenvalues --   -0.53724  -0.51997  -0.51164  -0.50551  -0.49714
 Alpha  occ. eigenvalues --   -0.48884  -0.47950  -0.46989  -0.46452  -0.45806
 Alpha  occ. eigenvalues --   -0.45138  -0.44851  -0.44488  -0.42971  -0.42650
 Alpha  occ. eigenvalues --   -0.42111  -0.41634  -0.41518  -0.40943  -0.39450
 Alpha  occ. eigenvalues --   -0.39311  -0.37936  -0.36046  -0.35812  -0.35751
 Alpha  occ. eigenvalues --   -0.34508  -0.34335  -0.33824  -0.33318  -0.32915
 Alpha  occ. eigenvalues --   -0.32404  -0.32006  -0.30802  -0.29656  -0.29475
 Alpha  occ. eigenvalues --   -0.26158  -0.25305  -0.24569
 Alpha virt. eigenvalues --   -0.00462  -0.00395   0.02195   0.03342   0.04415
 Alpha virt. eigenvalues --    0.05423   0.05858   0.06392   0.07667   0.08206
 Alpha virt. eigenvalues --    0.09245   0.09468   0.10338   0.10555   0.11541

 Mulliken charges:
               1
     1  C   -0.323648
     2  N   -0.524851
     3  C   -0.323404
     4  S    1.318152
     5  O   -0.560082
     6  O   -0.540397
     7  N   -0.723748
     8  C    0.186951
     9  C   -0.505701
    10  S    1.115431
    11  O   -0.529320
    12  O   -0.546562
    13  C   -0.517100
    14  C   -0.282683
    15  C   -0.381945
    16  C    0.168346
    17  C   -0.185991
    18  C   -0.137693
    19  C   -0.140329
    20  C   -0.138621
    21  C   -0.186057
    22  H    0.183565
    23  H    0.179818
    24  H    0.173905
    25  H    0.178334
    26  H    0.202193
    27  H    0.167464
    28  H    0.387211
    29  H    0.222625
    30  H    0.229683
    31  H    0.219919
    32  H    0.259283
    33  H    0.187655
    34  H    0.153571
    35  H    0.162624
    36  H    0.162987
    37  H    0.133498
    38  H    0.140901
    39  H    0.140273
    40  H    0.140846
    41  H    0.132896
 Sum of Mulliken charges =   0.00000

 Dipole moment (field-independent basis, Debye):
    X=             -6.7462    Y=             -6.2189    Z=             -2.3792  Tot=              9.4788
 Quadrupole moment (field-independent basis, Debye-Ang):
   XX=           -162.7221   YY=           -155.7458   ZZ=           -126.7650
   XY=              0.4003   XZ=              1.1562   YZ=            -12.3875

 Normal termination of Gaussian 09 at Fri Oct  2 06:22:07 2020.
