 Gaussian 09, Revision D.01,

 -----------------
 #p b3lyp/6-31G(d)
 -----------------

 -----------------
 SM40.n.16.pdb.xyz
 -----------------
 Symbolic Z-matrix:
 Charge =  0 Multiplicity = 1

 SCF Done:  E(RB3LYP) =  -1714.04205650     A.U. after   15 cycles
 Normal termination of Gaussian 09 at Fri Oct  2 06:17:18 2020.
 Gaussian 09:  AM64L-G09RevD.01 24-Apr-2013

 ----------------------------------------------------------------------
 #p b3lyp/6-31G(d) scrf=(iefpcm,read,solvent=n-Octanol) geom=allcheck g
 uess=read
 ----------------------------------------------------------------------

 Structure from the checkpoint file:  "SM40.n.16.pdb.xyz.mst.n.o.chk"
 -----------------
 SM40.n.16.pdb.xyz
 -----------------
 Charge =  0 Multiplicity = 1

                         Standard orientation:
 ---------------------------------------------------------------------
 Center     Atomic      Atomic             Coordinates (Angstroms)
 Number     Number       Type             X           Y           Z
 ---------------------------------------------------------------------
      1          6           0       -4.123990   -1.435203    1.470808
      2          7           0       -2.725729   -1.510694    1.012642
      3          6           0       -1.999164   -2.683636    1.520869
      4         16           0       -2.534962   -1.244481   -0.637920
      5          8           0       -2.656839   -2.467279   -1.439005
      6          8           0       -3.380773   -0.087372   -0.951438
      7          7           0       -0.900229   -0.870140   -0.696279
      8          6           0       -0.357718    0.475085   -0.460388
      9          6           0       -0.811803    1.103688    0.895243
     10         16           0       -1.040189    2.712624    0.063254
     11          8           0       -2.369230    3.311731    0.252301
     12          8           0        0.159625    3.557237    0.216359
     13          6           0       -0.893374    1.620895   -1.392444
     14          6           0        1.172248    0.379593   -0.569168
     15          6           0        1.833374   -0.600703    0.407646
     16          6           0        3.339680   -0.610796    0.266735
     17          6           0        4.127432    0.363790    0.893867
     18          6           0        5.512661    0.370179    0.737122
     19          6           0        6.135650   -0.599805   -0.050062
     20          6           0        5.362322   -1.577537   -0.678220
     21          6           0        3.975646   -1.579897   -0.519096
     22          1           0       -4.103321   -1.377765    2.560461
     23          1           0       -4.709382   -2.314233    1.173100
     24          1           0       -4.585486   -0.534137    1.072471
     25          1           0       -2.000138   -2.623108    2.610614
     26          1           0       -0.969619   -2.648396    1.165284
     27          1           0       -2.464378   -3.626008    1.210227
     28          1           0       -0.503081   -1.326209   -1.517176
     29          1           0       -0.071602    1.119060    1.695260
     30          1           0       -1.763993    0.716983    1.254418
     31          1           0       -0.207875    1.986396   -2.157870
     32          1           0       -1.885052    1.412988   -1.791449
     33          1           0        1.572807    1.386102   -0.415762
     34          1           0        1.428850    0.100944   -1.597078
     35          1           0        1.437839   -1.605060    0.233476
     36          1           0        1.561074   -0.329386    1.434225
     37          1           0        3.652340    1.119732    1.513237
     38          1           0        6.107294    1.129988    1.234022
     39          1           0        7.214045   -0.596485   -0.168854
     40          1           0        5.835967   -2.339041   -1.288210
     41          1           0        3.377776   -2.345275   -1.003485
 ---------------------------------------------------------------------

 SCF Done:  E(RB3LYP) =  -1714.07164777     A.U. after   11 cycles

 The electronic state is 1-A.
 Alpha  occ. eigenvalues --  -89.14504 -89.09604 -19.16255 -19.16104 -19.15251
 Alpha  occ. eigenvalues --  -19.14985 -14.38814 -14.38623 -10.28214 -10.23145
 Alpha  occ. eigenvalues --  -10.22780 -10.22723 -10.22702 -10.20918 -10.20094
 Alpha  occ. eigenvalues --  -10.19995 -10.19235 -10.19219 -10.19117 -10.19114
 Alpha  occ. eigenvalues --  -10.19078  -8.16750  -8.12668  -6.13239  -6.13174
 Alpha  occ. eigenvalues --   -6.13131  -6.09103  -6.09020  -6.08940  -1.13831
 Alpha  occ. eigenvalues --   -1.10506  -1.02040  -1.00222  -0.96080  -0.94707
 Alpha  occ. eigenvalues --   -0.86394  -0.85761  -0.80028  -0.74868  -0.74623
 Alpha  occ. eigenvalues --   -0.73329  -0.72752  -0.71625  -0.67687  -0.63157
 Alpha  occ. eigenvalues --   -0.61000  -0.60695  -0.58435  -0.57688  -0.54828
 Alpha  occ. eigenvalues --   -0.53458  -0.52079  -0.51736  -0.50492  -0.49229
 Alpha  occ. eigenvalues --   -0.48943  -0.47844  -0.46803  -0.46249  -0.45845
 Alpha  occ. eigenvalues --   -0.45148  -0.44802  -0.44101  -0.43157  -0.42332
 Alpha  occ. eigenvalues --   -0.42117  -0.42065  -0.41564  -0.41241  -0.39587
 Alpha  occ. eigenvalues --   -0.38915  -0.38452  -0.36514  -0.35919  -0.35537
 Alpha  occ. eigenvalues --   -0.34984  -0.34025  -0.33908  -0.33551  -0.32882
 Alpha  occ. eigenvalues --   -0.32261  -0.31999  -0.30708  -0.30211  -0.28134
 Alpha  occ. eigenvalues --   -0.26650  -0.25334  -0.24616
 Alpha virt. eigenvalues --   -0.00540  -0.00373   0.02963   0.04626   0.05335
 Alpha virt. eigenvalues --    0.05420   0.05930   0.06471   0.07010   0.08080
 Alpha virt. eigenvalues --    0.09014   0.09470   0.10072   0.10683   0.11790

 Mulliken charges:
               1
     1  C   -0.332525
     2  N   -0.529233
     3  C   -0.329129
     4  S    1.338797
     5  O   -0.540619
     6  O   -0.563198
     7  N   -0.739638
     8  C    0.190560
     9  C   -0.503750
    10  S    1.104876
    11  O   -0.526991
    12  O   -0.553416
    13  C   -0.501611
    14  C   -0.308986
    15  C   -0.362075
    16  C    0.167195
    17  C   -0.185877
    18  C   -0.138896
    19  C   -0.140354
    20  C   -0.138336
    21  C   -0.190397
    22  H    0.184640
    23  H    0.170680
    24  H    0.205354
    25  H    0.183354
    26  H    0.193921
    27  H    0.174613
    28  H    0.382699
    29  H    0.218717
    30  H    0.242374
    31  H    0.218755
    32  H    0.244911
    33  H    0.185650
    34  H    0.164772
    35  H    0.164153
    36  H    0.155176
    37  H    0.135620
    38  H    0.142014
    39  H    0.140901
    40  H    0.141454
    41  H    0.133844
 Sum of Mulliken charges =   0.00000

 Dipole moment (field-independent basis, Debye):
    X=              3.2323    Y=             -6.1474    Z=              1.8863  Tot=              7.1970
 Quadrupole moment (field-independent basis, Debye-Ang):
   XX=           -141.9145   YY=           -162.0399   ZZ=           -130.1009
   XY=              7.8528   XZ=            -14.0092   YZ=             -8.3656

 Normal termination of Gaussian 09 at Fri Oct  2 06:22:01 2020.
