 Gaussian 09, Revision D.01,

 -----------------
 #p b3lyp/6-31G(d)
 -----------------

 -----------------
 SM40.n.28.pdb.xyz
 -----------------
 Symbolic Z-matrix:
 Charge =  0 Multiplicity = 1

 SCF Done:  E(RB3LYP) =  -1714.04000657     A.U. after   15 cycles
 Normal termination of Gaussian 09 at Fri Oct  2 01:36:00 2020.
 Gaussian 09:  AM64L-G09RevD.01 24-Apr-2013

 ----------------------------------------------------------------------
 #p b3lyp/6-31G(d) scrf=(iefpcm,read,solvent=Water) geom=allcheck guess
 =read
 ----------------------------------------------------------------------

 Structure from the checkpoint file:  "SM40.n.28.pdb.xyz.mst.n.w.chk"
 -----------------
 SM40.n.28.pdb.xyz
 -----------------
 Charge =  0 Multiplicity = 1

                         Standard orientation:
 ---------------------------------------------------------------------
 Center     Atomic      Atomic             Coordinates (Angstroms)
 Number     Number       Type             X           Y           Z
 ---------------------------------------------------------------------
      1          6           0       -2.863572   -1.825483   -2.083181
      2          7           0       -2.709119   -0.747566   -1.089307
      3          6           0       -3.828463    0.209047   -1.087528
      4         16           0       -2.264312   -1.286653    0.441801
      5          8           0       -3.418144   -1.670037    1.270319
      6          8           0       -1.199358   -2.274610    0.218677
      7          7           0       -1.701473    0.136649    1.118792
      8          6           0       -0.282528    0.559078    1.009319
      9          6           0       -0.250952    2.077109    1.389314
     10         16           0       -0.133210    2.523808   -0.374199
     11          8           0       -1.429767    2.963499   -0.931423
     12          8           0        1.068836    3.312520   -0.710610
     13          6           0        0.106323    0.722192   -0.496214
     14          6           0        0.633787   -0.313196    1.887715
     15          6           0        2.143133   -0.001356    1.881876
     16          6           0        2.924610   -0.527402    0.693447
     17          6           0        3.746045    0.325578   -0.054524
     18          6           0        4.498215   -0.158033   -1.127504
     19          6           0        4.440250   -1.508505   -1.469385
     20          6           0        3.625943   -2.371180   -0.731424
     21          6           0        2.876183   -1.883185    0.339326
     22          1           0       -2.931958   -1.349825   -3.062082
     23          1           0       -3.768045   -2.423069   -1.915358
     24          1           0       -1.987241   -2.470016   -2.058741
     25          1           0       -3.882677    0.646753   -2.085817
     26          1           0       -3.624258    0.999850   -0.367164
     27          1           0       -4.784346   -0.272909   -0.853316
     28          1           0       -2.051643    0.192297    2.077713
     29          1           0        0.655696    2.378706    1.912934
     30          1           0       -1.139099    2.466667    1.886367
     31          1           0        1.152212    0.498048   -0.706493
     32          1           0       -0.563471    0.247126   -1.210735
     33          1           0        0.474975   -1.355800    1.601739
     34          1           0        0.263967   -0.211203    2.913831
     35          1           0        2.557260   -0.447442    2.794824
     36          1           0        2.316976    1.076232    1.973462
     37          1           0        3.789032    1.378892    0.206237
     38          1           0        5.126223    0.522467   -1.694439
     39          1           0        5.023025   -1.887735   -2.302257
     40          1           0        3.574347   -3.423301   -0.988382
     41          1           0        2.247142   -2.562755    0.906523
 ---------------------------------------------------------------------

 SCF Done:  E(RB3LYP) =  -1714.06422655     A.U. after   11 cycles

 The electronic state is 1-A.
 Alpha  occ. eigenvalues --  -89.14162 -89.09759 -19.15910 -19.15846 -19.15527
 Alpha  occ. eigenvalues --  -19.15353 -14.38020 -14.37983 -10.27750 -10.23117
 Alpha  occ. eigenvalues --  -10.22542 -10.21977 -10.21742 -10.20011 -10.19777
 Alpha  occ. eigenvalues --  -10.19654 -10.19191 -10.19180 -10.19008 -10.19000
 Alpha  occ. eigenvalues --  -10.18983  -8.16390  -8.12827  -6.12877  -6.12822
 Alpha  occ. eigenvalues --   -6.12772  -6.09276  -6.09179  -6.09078  -1.13341
 Alpha  occ. eigenvalues --   -1.10588  -1.01552  -1.00288  -0.95503  -0.94017
 Alpha  occ. eigenvalues --   -0.86169  -0.85338  -0.79416  -0.74675  -0.74390
 Alpha  occ. eigenvalues --   -0.72635  -0.72409  -0.71245  -0.67377  -0.62811
 Alpha  occ. eigenvalues --   -0.60656  -0.60109  -0.58153  -0.57179  -0.54326
 Alpha  occ. eigenvalues --   -0.53167  -0.51685  -0.51474  -0.50349  -0.49164
 Alpha  occ. eigenvalues --   -0.48482  -0.46866  -0.46340  -0.46128  -0.45434
 Alpha  occ. eigenvalues --   -0.44944  -0.44396  -0.43631  -0.42484  -0.42149
 Alpha  occ. eigenvalues --   -0.41891  -0.41404  -0.41008  -0.40624  -0.39534
 Alpha  occ. eigenvalues --   -0.38623  -0.37203  -0.36923  -0.35761  -0.35504
 Alpha  occ. eigenvalues --   -0.34345  -0.33999  -0.33568  -0.33158  -0.32725
 Alpha  occ. eigenvalues --   -0.32495  -0.31696  -0.30871  -0.29582  -0.28477
 Alpha  occ. eigenvalues --   -0.26089  -0.25403  -0.24492
 Alpha virt. eigenvalues --   -0.00719  -0.00478   0.03650   0.03993   0.04983
 Alpha virt. eigenvalues --    0.05967   0.06354   0.06985   0.07754   0.08960
 Alpha virt. eigenvalues --    0.09352   0.10123   0.10824   0.12024   0.12399

 Mulliken charges:
               1
     1  C   -0.327145
     2  N   -0.527851
     3  C   -0.326190
     4  S    1.337073
     5  O   -0.565777
     6  O   -0.575963
     7  N   -0.733351
     8  C    0.157017
     9  C   -0.491769
    10  S    1.116474
    11  O   -0.564256
    12  O   -0.562013
    13  C   -0.508068
    14  C   -0.291302
    15  C   -0.372148
    16  C    0.147965
    17  C   -0.208611
    18  C   -0.142865
    19  C   -0.151116
    20  C   -0.147892
    21  C   -0.189883
    22  H    0.189225
    23  H    0.170745
    24  H    0.197833
    25  H    0.185804
    26  H    0.198213
    27  H    0.169439
    28  H    0.411706
    29  H    0.231768
    30  H    0.238189
    31  H    0.230075
    32  H    0.253828
    33  H    0.195400
    34  H    0.165310
    35  H    0.179790
    36  H    0.161212
    37  H    0.148100
    38  H    0.151056
    39  H    0.149743
    40  H    0.150908
    41  H    0.149326
 Sum of Mulliken charges =   0.00000

 Dipole moment (field-independent basis, Debye):
    X=              0.4957    Y=             -1.5186    Z=              2.4964  Tot=              2.9638
 Quadrupole moment (field-independent basis, Debye-Ang):
   XX=           -138.0357   YY=           -161.8427   ZZ=           -123.1930
   XY=             -6.3413   XZ=              6.5256   YZ=             20.2958

 Normal termination of Gaussian 09 at Fri Oct  2 01:41:23 2020.
