 Gaussian 09, Revision D.01,

 -----------------
 #p b3lyp/6-31G(d)
 -----------------

 -----------------
 SM40.n.13.pdb.xyz
 -----------------
 Symbolic Z-matrix:
 Charge =  0 Multiplicity = 1

 SCF Done:  E(RB3LYP) =  -1714.03814994     A.U. after   15 cycles
 Normal termination of Gaussian 09 at Fri Oct  2 06:18:04 2020.
 Gaussian 09:  AM64L-G09RevD.01 24-Apr-2013

 ----------------------------------------------------------------------
 #p b3lyp/6-31G(d) scrf=(iefpcm,read,solvent=n-Octanol) geom=allcheck g
 uess=read
 ----------------------------------------------------------------------

 Structure from the checkpoint file:  "SM40.n.13.pdb.xyz.mst.n.o.chk"
 -----------------
 SM40.n.13.pdb.xyz
 -----------------
 Charge =  0 Multiplicity = 1

                         Standard orientation:
 ---------------------------------------------------------------------
 Center     Atomic      Atomic             Coordinates (Angstroms)
 Number     Number       Type             X           Y           Z
 ---------------------------------------------------------------------
      1          6           0       -3.883125    0.548330   -1.288792
      2          7           0       -3.733004   -0.434423   -0.207489
      3          6           0       -4.710254   -1.533482   -0.251671
      4         16           0       -2.154418   -0.904632    0.103531
      5          8           0       -2.246707   -1.988107    1.088326
      6          8           0       -1.346902   -1.123627   -1.103390
      7          7           0       -1.618534    0.544861    0.759294
      8          6           0       -0.202889    0.959852    0.785104
      9          6           0       -0.182572    2.500632    1.081408
     10         16           0        0.945877    2.755835   -0.333746
     11          8           0        0.449431    3.724829   -1.323510
     12          8           0        2.348385    2.831478    0.113360
     13          6           0        0.422779    1.037716   -0.645546
     14          6           0        0.675767    0.240406    1.828229
     15          6           0        1.009839   -1.248741    1.620912
     16          6           0        2.097112   -1.537093    0.603574
     17          6           0        3.363670   -0.949689    0.727305
     18          6           0        4.377833   -1.237546   -0.182242
     19          6           0        4.146277   -2.124295   -1.234881
     20          6           0        2.890936   -2.716874   -1.368829
     21          6           0        1.875156   -2.423583   -0.456860
     22          1           0       -4.894238    0.953758   -1.226347
     23          1           0       -3.734070    0.104687   -2.279895
     24          1           0       -3.171294    1.359075   -1.137587
     25          1           0       -5.703829   -1.086678   -0.173309
     26          1           0       -4.546337   -2.195352    0.596343
     27          1           0       -4.653961   -2.108219   -1.184465
     28          1           0       -2.098470    0.714825    1.642583
     29          1           0        0.229425    2.803213    2.043883
     30          1           0       -1.139879    2.982436    0.885017
     31          1           0        1.240305    0.352664   -0.858198
     32          1           0       -0.319832    1.013536   -1.440482
     33          1           0        0.172331    0.357654    2.793846
     34          1           0        1.613410    0.800662    1.903501
     35          1           0        0.108549   -1.816734    1.382078
     36          1           0        1.344278   -1.621209    2.597078
     37          1           0        3.552379   -0.256523    1.541919
     38          1           0        5.351925   -0.770158   -0.068370
     39          1           0        4.935889   -2.349612   -1.943740
     40          1           0        2.698450   -3.405040   -2.185620
     41          1           0        0.895571   -2.875666   -0.571986
 ---------------------------------------------------------------------

 SCF Done:  E(RB3LYP) =  -1714.06659156     A.U. after   11 cycles

 The electronic state is 1-A.
 Alpha  occ. eigenvalues --  -89.14163 -89.09530 -19.15748 -19.15661 -19.15278
 Alpha  occ. eigenvalues --  -19.15029 -14.38388 -14.38240 -10.28065 -10.23322
 Alpha  occ. eigenvalues --  -10.22702 -10.22547 -10.22488 -10.20366 -10.19580
 Alpha  occ. eigenvalues --  -10.19144 -10.18895 -10.18828 -10.18727 -10.18675
 Alpha  occ. eigenvalues --  -10.18518  -8.16383  -8.12603  -6.12868  -6.12813
 Alpha  occ. eigenvalues --   -6.12772  -6.09039  -6.08955  -6.08868  -1.13377
 Alpha  occ. eigenvalues --   -1.10496  -1.01492  -1.00242  -0.95802  -0.94292
 Alpha  occ. eigenvalues --   -0.86183  -0.85367  -0.79312  -0.74400  -0.74198
 Alpha  occ. eigenvalues --   -0.73104  -0.72492  -0.71850  -0.67077  -0.63059
 Alpha  occ. eigenvalues --   -0.60487  -0.60241  -0.58024  -0.57587  -0.55098
 Alpha  occ. eigenvalues --   -0.52637  -0.51937  -0.51019  -0.50260  -0.49159
 Alpha  occ. eigenvalues --   -0.48404  -0.46853  -0.46811  -0.46125  -0.45599
 Alpha  occ. eigenvalues --   -0.45188  -0.44414  -0.44004  -0.43174  -0.42024
 Alpha  occ. eigenvalues --   -0.41869  -0.41565  -0.41317  -0.40376  -0.39328
 Alpha  occ. eigenvalues --   -0.38577  -0.37375  -0.37071  -0.35413  -0.35142
 Alpha  occ. eigenvalues --   -0.34900  -0.33935  -0.33458  -0.33145  -0.32446
 Alpha  occ. eigenvalues --   -0.32221  -0.31383  -0.30614  -0.29341  -0.28259
 Alpha  occ. eigenvalues --   -0.26188  -0.24946  -0.24134
 Alpha virt. eigenvalues --   -0.00399   0.00083   0.03032   0.03906   0.04874
 Alpha virt. eigenvalues --    0.05819   0.06497   0.07526   0.08509   0.09468
 Alpha virt. eigenvalues --    0.09639   0.09846   0.10400   0.11333   0.11848

 Mulliken charges:
               1
     1  C   -0.324337
     2  N   -0.522790
     3  C   -0.326844
     4  S    1.339625
     5  O   -0.548076
     6  O   -0.560224
     7  N   -0.734279
     8  C    0.174188
     9  C   -0.498158
    10  S    1.099354
    11  O   -0.532151
    12  O   -0.546515
    13  C   -0.483848
    14  C   -0.286074
    15  C   -0.382139
    16  C    0.147069
    17  C   -0.182615
    18  C   -0.137176
    19  C   -0.141780
    20  C   -0.137914
    21  C   -0.194348
    22  H    0.182235
    23  H    0.172993
    24  H    0.187557
    25  H    0.180798
    26  H    0.202825
    27  H    0.167085
    28  H    0.384143
    29  H    0.223896
    30  H    0.223073
    31  H    0.238976
    32  H    0.228049
    33  H    0.156089
    34  H    0.173480
    35  H    0.191232
    36  H    0.163770
    37  H    0.137737
    38  H    0.139476
    39  H    0.138404
    40  H    0.138871
    41  H    0.148346
 Sum of Mulliken charges =   0.00000

 Dipole moment (field-independent basis, Debye):
    X=             -5.9855    Y=             -0.9584    Z=              2.9434  Tot=              6.7385
 Quadrupole moment (field-independent basis, Debye-Ang):
   XX=           -120.5091   YY=           -160.1668   ZZ=           -132.7812
   XY=            -12.6344   XZ=              2.8123   YZ=             14.7897

 Normal termination of Gaussian 09 at Fri Oct  2 06:23:01 2020.
