 Gaussian 09, Revision D.01,

 -----------------
 #p b3lyp/6-31G(d)
 -----------------

 -----------------
 SM40.n.13.pdb.xyz
 -----------------
 Symbolic Z-matrix:
 Charge =  0 Multiplicity = 1

 SCF Done:  E(RB3LYP) =  -1714.03732330     A.U. after   15 cycles
 Normal termination of Gaussian 09 at Thu Oct  1 22:09:39 2020.
 Gaussian 09:  AM64L-G09RevD.01 24-Apr-2013

 ----------------------------------------------------------------------
 #p b3lyp/6-31G(d) scrf=(iefpcm,read,solvent=Water) geom=allcheck guess
 =read
 ----------------------------------------------------------------------

 Structure from the checkpoint file:  "SM40.n.13.pdb.xyz.mst.n.w.chk"
 -----------------
 SM40.n.13.pdb.xyz
 -----------------
 Charge =  0 Multiplicity = 1

                         Standard orientation:
 ---------------------------------------------------------------------
 Center     Atomic      Atomic             Coordinates (Angstroms)
 Number     Number       Type             X           Y           Z
 ---------------------------------------------------------------------
      1          6           0       -3.883930    0.566283   -1.289060
      2          7           0       -3.746355   -0.425731   -0.211064
      3          6           0       -4.717339   -1.531940   -0.294595
      4         16           0       -2.172251   -0.897446    0.113720
      5          8           0       -2.274758   -1.986787    1.097170
      6          8           0       -1.358724   -1.143652   -1.088931
      7          7           0       -1.626011    0.541118    0.760274
      8          6           0       -0.212503    0.958876    0.777809
      9          6           0       -0.195478    2.501453    1.068596
     10         16           0        0.950529    2.744426   -0.328134
     11          8           0        0.497553    3.734624   -1.324097
     12          8           0        2.357105    2.803577    0.123683
     13          6           0        0.408678    1.038709   -0.655131
     14          6           0        0.666458    0.244352    1.824247
     15          6           0        1.016785   -1.240403    1.618635
     16          6           0        2.107570   -1.529792    0.604803
     17          6           0        3.360056   -0.904972    0.698603
     18          6           0        4.377085   -1.198195   -0.207612
     19          6           0        4.163654   -2.128687   -1.227040
     20          6           0        2.924223   -2.760017   -1.330598
     21          6           0        1.906946   -2.462184   -0.420820
     22          1           0       -4.897866    0.966085   -1.237671
     23          1           0       -3.720635    0.128097   -2.280674
     24          1           0       -3.176476    1.378482   -1.123592
     25          1           0       -5.713107   -1.086716   -0.259447
     26          1           0       -4.589709   -2.191218    0.561057
     27          1           0       -4.618049   -2.106836   -1.223252
     28          1           0       -2.102321    0.726276    1.646002
     29          1           0        0.196764    2.812084    2.035654
     30          1           0       -1.148253    2.981690    0.847269
     31          1           0        1.217022    0.348977   -0.884907
     32          1           0       -0.338246    1.040750   -1.445650
     33          1           0        0.150963    0.353042    2.783168
     34          1           0        1.596517    0.813207    1.913868
     35          1           0        0.121060   -1.818644    1.378501
     36          1           0        1.352182   -1.608608    2.596611
     37          1           0        3.539090   -0.181370    1.487619
     38          1           0        5.338861   -0.702472   -0.117164
     39          1           0        4.955433   -2.357136   -1.933225
     40          1           0        2.745975   -3.485245   -2.118297
     41          1           0        0.942252   -2.952834   -0.509333
 ---------------------------------------------------------------------

 SCF Done:  E(RB3LYP) =  -1714.06287634     A.U. after   11 cycles

 The electronic state is 1-A.
 Alpha  occ. eigenvalues --  -89.14176 -89.09834 -19.15713 -19.15700 -19.15677
 Alpha  occ. eigenvalues --  -19.15438 -14.38028 -14.37915 -10.27808 -10.23088
 Alpha  occ. eigenvalues --  -10.22757 -10.21994 -10.21985 -10.19918 -10.19726
 Alpha  occ. eigenvalues --  -10.19017 -10.18991 -10.18945 -10.18822 -10.18757
 Alpha  occ. eigenvalues --  -10.18690  -8.16376  -8.12920  -6.12861  -6.12810
 Alpha  occ. eigenvalues --   -6.12766  -6.09370  -6.09269  -6.09169  -1.13213
 Alpha  occ. eigenvalues --   -1.10745  -1.01286  -1.00459  -0.95551  -0.93963
 Alpha  occ. eigenvalues --   -0.86193  -0.85469  -0.79213  -0.74421  -0.74258
 Alpha  occ. eigenvalues --   -0.72592  -0.72313  -0.71623  -0.66980  -0.62962
 Alpha  occ. eigenvalues --   -0.60373  -0.60171  -0.58031  -0.57305  -0.54750
 Alpha  occ. eigenvalues --   -0.52596  -0.51862  -0.51079  -0.50242  -0.49081
 Alpha  occ. eigenvalues --   -0.48214  -0.46819  -0.46529  -0.46023  -0.45472
 Alpha  occ. eigenvalues --   -0.45156  -0.44451  -0.44022  -0.42978  -0.41951
 Alpha  occ. eigenvalues --   -0.41596  -0.41514  -0.40822  -0.40229  -0.38858
 Alpha  occ. eigenvalues --   -0.38454  -0.37221  -0.36952  -0.35391  -0.35068
 Alpha  occ. eigenvalues --   -0.34974  -0.34067  -0.33508  -0.33099  -0.32658
 Alpha  occ. eigenvalues --   -0.32580  -0.31391  -0.30984  -0.29621  -0.28057
 Alpha  occ. eigenvalues --   -0.26036  -0.25160  -0.24276
 Alpha virt. eigenvalues --   -0.00543  -0.00116   0.03188   0.04035   0.04798
 Alpha virt. eigenvalues --    0.05772   0.06761   0.07875   0.08720   0.09621
 Alpha virt. eigenvalues --    0.09968   0.10074   0.10996   0.11654   0.12517

 Mulliken charges:
               1
     1  C   -0.325699
     2  N   -0.528168
     3  C   -0.325308
     4  S    1.341286
     5  O   -0.570629
     6  O   -0.579162
     7  N   -0.735815
     8  C    0.169393
     9  C   -0.487629
    10  S    1.103060
    11  O   -0.556373
    12  O   -0.570802
    13  C   -0.481143
    14  C   -0.284740
    15  C   -0.377343
    16  C    0.148979
    17  C   -0.192374
    18  C   -0.148194
    19  C   -0.152394
    20  C   -0.147605
    21  C   -0.201928
    22  H    0.188323
    23  H    0.174036
    24  H    0.190546
    25  H    0.187351
    26  H    0.198111
    27  H    0.171724
    28  H    0.416221
    29  H    0.236615
    30  H    0.233920
    31  H    0.238634
    32  H    0.233478
    33  H    0.168236
    34  H    0.174095
    35  H    0.181259
    36  H    0.170552
    37  H    0.147656
    38  H    0.148402
    39  H    0.147655
    40  H    0.148129
    41  H    0.147647
 Sum of Mulliken charges =   0.00000

 Dipole moment (field-independent basis, Debye):
    X=             -6.6952    Y=             -0.5278    Z=              3.4576  Tot=              7.5538
 Quadrupole moment (field-independent basis, Debye-Ang):
   XX=           -119.8777   YY=           -161.7140   ZZ=           -131.9266
   XY=            -15.0442   XZ=              3.2165   YZ=             16.3687

 Normal termination of Gaussian 09 at Thu Oct  1 22:14:50 2020.
