 Gaussian 09, Revision D.01,

 -----------------
 #p b3lyp/6-31G(d)
 -----------------

 -----------------
 SM40.n.14.pdb.xyz
 -----------------
 Symbolic Z-matrix:
 Charge =  0 Multiplicity = 1

 SCF Done:  E(RB3LYP) =  -1714.03618913     A.U. after   16 cycles
 Normal termination of Gaussian 09 at Fri Oct  2 06:18:17 2020.
 Gaussian 09:  AM64L-G09RevD.01 24-Apr-2013

 ----------------------------------------------------------------------
 #p b3lyp/6-31G(d) scrf=(iefpcm,read,solvent=n-Octanol) geom=allcheck g
 uess=read
 ----------------------------------------------------------------------

 Structure from the checkpoint file:  "SM40.n.14.pdb.xyz.mst.n.o.chk"
 -----------------
 SM40.n.14.pdb.xyz
 -----------------
 Charge =  0 Multiplicity = 1

                         Standard orientation:
 ---------------------------------------------------------------------
 Center     Atomic      Atomic             Coordinates (Angstroms)
 Number     Number       Type             X           Y           Z
 ---------------------------------------------------------------------
      1          6           0        4.003668   -2.098211    0.899999
      2          7           0        3.191599   -1.738904   -0.266290
      3          6           0        2.419048   -2.827436   -0.871304
      4         16           0        2.530581   -0.225573   -0.327563
      5          8           0        3.503340    0.698417    0.268027
      6          8           0        2.043312    0.011351   -1.685544
      7          7           0        1.141699   -0.356178    0.658388
      8          6           0        0.139411    0.729223    0.731622
      9          6           0       -0.594371    0.990720   -0.627212
     10         16           0       -0.420033    2.789849   -0.378831
     11          8           0        0.254127    3.495307   -1.480611
     12          8           0       -1.646244    3.368799    0.203783
     13          6           0        0.704172    2.187104    0.927596
     14          6           0       -0.821857    0.384794    1.886584
     15          6           0       -1.439280   -1.025643    1.888116
     16          6           0       -2.450418   -1.313120    0.798345
     17          6           0       -2.156565   -2.217483   -0.231259
     18          6           0       -3.085949   -2.486394   -1.236783
     19          6           0       -4.329555   -1.854166   -1.229308
     20          6           0       -4.638346   -0.954550   -0.205812
     21          6           0       -3.707793   -0.690861    0.799111
     22          1           0        4.715142   -2.866309    0.587058
     23          1           0        3.396746   -2.497753    1.722192
     24          1           0        4.556019   -1.222704    1.237137
     25          1           0        3.120006   -3.609303   -1.171565
     26          1           0        1.909818   -2.453888   -1.758543
     27          1           0        1.686633   -3.248843   -0.173133
     28          1           0        1.464967   -0.591078    1.598127
     29          1           0       -1.626934    0.658266   -0.693682
     30          1           0       -0.007549    0.676225   -1.488662
     31          1           0        0.530370    2.644672    1.901678
     32          1           0        1.745929    2.297460    0.623929
     33          1           0       -1.610161    1.144016    1.894174
     34          1           0       -0.268250    0.513732    2.823344
     35          1           0       -1.919481   -1.153994    2.864941
     36          1           0       -0.638962   -1.768615    1.835898
     37          1           0       -1.188217   -2.708817   -0.241363
     38          1           0       -2.837125   -3.189958   -2.025509
     39          1           0       -5.053095   -2.061240   -2.010630
     40          1           0       -5.605109   -0.463088   -0.187079
     41          1           0       -3.961877    0.003514    1.595892
 ---------------------------------------------------------------------

 SCF Done:  E(RB3LYP) =  -1714.06661461     A.U. after   11 cycles

 The electronic state is 1-A.
 Alpha  occ. eigenvalues --  -89.14697 -89.09278 -19.16317 -19.16254 -19.14979
 Alpha  occ. eigenvalues --  -19.14729 -14.38997 -14.38633 -10.28057 -10.23320
 Alpha  occ. eigenvalues --  -10.23078 -10.22784 -10.22284 -10.21050 -10.20156
 Alpha  occ. eigenvalues --  -10.19984 -10.19373 -10.19331 -10.19217 -10.19195
 Alpha  occ. eigenvalues --  -10.19184  -8.16918  -8.12349  -6.13386  -6.13346
 Alpha  occ. eigenvalues --   -6.13329  -6.08786  -6.08701  -6.08617  -1.14038
 Alpha  occ. eigenvalues --   -1.10169  -1.02269  -0.99905  -0.96121  -0.94823
 Alpha  occ. eigenvalues --   -0.86210  -0.85457  -0.79855  -0.74798  -0.74689
 Alpha  occ. eigenvalues --   -0.73964  -0.72444  -0.72124  -0.67660  -0.62906
 Alpha  occ. eigenvalues --   -0.61325  -0.60746  -0.58387  -0.57280  -0.55695
 Alpha  occ. eigenvalues --   -0.52575  -0.51932  -0.51407  -0.50202  -0.49732
 Alpha  occ. eigenvalues --   -0.48979  -0.47897  -0.46929  -0.46305  -0.46078
 Alpha  occ. eigenvalues --   -0.45320  -0.44563  -0.43832  -0.43211  -0.42512
 Alpha  occ. eigenvalues --   -0.42273  -0.42016  -0.41874  -0.40829  -0.40116
 Alpha  occ. eigenvalues --   -0.38966  -0.37942  -0.37347  -0.36132  -0.35508
 Alpha  occ. eigenvalues --   -0.35025  -0.34045  -0.33825  -0.33248  -0.32651
 Alpha  occ. eigenvalues --   -0.32107  -0.31870  -0.30207  -0.29615  -0.28157
 Alpha  occ. eigenvalues --   -0.26960  -0.25465  -0.24633
 Alpha virt. eigenvalues --   -0.00881  -0.00482   0.02632   0.04955   0.05163
 Alpha virt. eigenvalues --    0.05690   0.05861   0.05991   0.07200   0.08531
 Alpha virt. eigenvalues --    0.08799   0.09242   0.09804   0.11420   0.11934

 Mulliken charges:
               1
     1  C   -0.333792
     2  N   -0.509366
     3  C   -0.326024
     4  S    1.322513
     5  O   -0.548568
     6  O   -0.555811
     7  N   -0.715687
     8  C    0.179386
     9  C   -0.504037
    10  S    1.098808
    11  O   -0.531528
    12  O   -0.553761
    13  C   -0.513650
    14  C   -0.319125
    15  C   -0.345702
    16  C    0.152454
    17  C   -0.191243
    18  C   -0.135130
    19  C   -0.140445
    20  C   -0.135356
    21  C   -0.190895
    22  H    0.191014
    23  H    0.164780
    24  H    0.208293
    25  H    0.187050
    26  H    0.202365
    27  H    0.170332
    28  H    0.359259
    29  H    0.230802
    30  H    0.250606
    31  H    0.219650
    32  H    0.240322
    33  H    0.184479
    34  H    0.162335
    35  H    0.166129
    36  H    0.155300
    37  H    0.136440
    38  H    0.141958
    39  H    0.142602
    40  H    0.144094
    41  H    0.139149
 Sum of Mulliken charges =   0.00000

 Dipole moment (field-independent basis, Debye):
    X=              0.7587    Y=             -9.5277    Z=              5.8743  Tot=             11.2187
 Quadrupole moment (field-independent basis, Debye-Ang):
   XX=           -136.3819   YY=           -151.9080   ZZ=           -134.0187
   XY=             -9.2518   XZ=             10.8963   YZ=             11.0438

 Normal termination of Gaussian 09 at Fri Oct  2 06:23:15 2020.
