 Gaussian 09, Revision D.01,

 -----------------
 #p b3lyp/6-31G(d)
 -----------------

 -----------------
 SM40.n.20.pdb.xyz
 -----------------
 Symbolic Z-matrix:
 Charge =  0 Multiplicity = 1

 SCF Done:  E(RB3LYP) =  -1714.04116339     A.U. after   16 cycles
 Normal termination of Gaussian 09 at Fri Oct  2 06:18:37 2020.
 Gaussian 09:  AM64L-G09RevD.01 24-Apr-2013

 ----------------------------------------------------------------------
 #p b3lyp/6-31G(d) scrf=(iefpcm,read,solvent=n-Octanol) geom=allcheck g
 uess=read
 ----------------------------------------------------------------------

 Structure from the checkpoint file:  "SM40.n.20.pdb.xyz.mst.n.o.chk"
 -----------------
 SM40.n.20.pdb.xyz
 -----------------
 Charge =  0 Multiplicity = 1

                         Standard orientation:
 ---------------------------------------------------------------------
 Center     Atomic      Atomic             Coordinates (Angstroms)
 Number     Number       Type             X           Y           Z
 ---------------------------------------------------------------------
      1          6           0       -1.129683    3.084680    1.699226
      2          7           0       -1.739172    2.310589    0.608542
      3          6           0       -3.002753    2.861216    0.096741
      4         16           0       -0.664638    1.777913   -0.557471
      5          8           0       -1.463099    1.254661   -1.673398
      6          8           0        0.396129    2.744226   -0.872746
      7          7           0        0.063496    0.568494    0.379328
      8          6           0        1.198109   -0.181214   -0.199161
      9          6           0        1.933488   -0.949647    0.950189
     10         16           0        3.536190   -0.324253    0.334844
     11          8           0        4.348630    0.360728    1.351351
     12          8           0        4.175591   -1.303588   -0.562395
     13          6           0        2.388439    0.765107   -0.566680
     14          6           0        0.818005   -1.079154   -1.396076
     15          6           0        0.077750   -2.397241   -1.088583
     16          6           0       -1.259097   -2.297422   -0.381540
     17          6           0       -2.400067   -1.830952   -1.050058
     18          6           0       -3.631170   -1.765600   -0.401897
     19          6           0       -3.749278   -2.165906    0.930234
     20          6           0       -2.625151   -2.636512    1.608405
     21          6           0       -1.392758   -2.704237    0.953710
     22          1           0       -1.850857    3.122082    2.519104
     23          1           0       -0.877802    4.106625    1.393206
     24          1           0       -0.231831    2.573041    2.044029
     25          1           0       -3.707108    2.882858    0.930099
     26          1           0       -3.388892    2.209782   -0.683749
     27          1           0       -2.887392    3.879029   -0.295327
     28          1           0       -0.673197   -0.061441    0.699033
     29          1           0        1.855709   -2.034801    0.959741
     30          1           0        1.722342   -0.525018    1.931077
     31          1           0        2.609457    0.885354   -1.626543
     32          1           0        2.334943    1.731668   -0.069721
     33          1           0        1.739356   -1.342124   -1.922999
     34          1           0        0.220648   -0.466273   -2.075777
     35          1           0        0.735114   -3.051660   -0.506055
     36          1           0       -0.063848   -2.900740   -2.050487
     37          1           0       -2.321333   -1.512148   -2.083552
     38          1           0       -4.501916   -1.404897   -0.939035
     39          1           0       -4.709517   -2.116855    1.432428
     40          1           0       -2.705582   -2.959561    2.641575
     41          1           0       -0.526381   -3.093959    1.480322
 ---------------------------------------------------------------------

 SCF Done:  E(RB3LYP) =  -1714.06749070     A.U. after   11 cycles

 The electronic state is 1-A.
 Alpha  occ. eigenvalues --  -89.13990 -89.09757 -19.15668 -19.15652 -19.15473
 Alpha  occ. eigenvalues --  -19.15219 -14.38295 -14.38194 -10.27996 -10.23521
 Alpha  occ. eigenvalues --  -10.23047 -10.22568 -10.22506 -10.20403 -10.20236
 Alpha  occ. eigenvalues --  -10.20081 -10.19622 -10.19564 -10.19438 -10.19359
 Alpha  occ. eigenvalues --  -10.19222  -8.16251  -8.12825  -6.12722  -6.12688
 Alpha  occ. eigenvalues --   -6.12635  -6.09261  -6.09176  -6.09094  -1.13243
 Alpha  occ. eigenvalues --   -1.10722  -1.01306  -1.00451  -0.95875  -0.94373
 Alpha  occ. eigenvalues --   -0.86343  -0.85980  -0.79748  -0.74945  -0.74532
 Alpha  occ. eigenvalues --   -0.73224  -0.72841  -0.72033  -0.67106  -0.63186
 Alpha  occ. eigenvalues --   -0.61027  -0.60388  -0.58810  -0.57255  -0.55342
 Alpha  occ. eigenvalues --   -0.52586  -0.51996  -0.51678  -0.50508  -0.49351
 Alpha  occ. eigenvalues --   -0.48544  -0.47014  -0.46787  -0.46727  -0.45617
 Alpha  occ. eigenvalues --   -0.45360  -0.44726  -0.44419  -0.43342  -0.42375
 Alpha  occ. eigenvalues --   -0.41905  -0.41785  -0.41367  -0.40009  -0.39717
 Alpha  occ. eigenvalues --   -0.39239  -0.38474  -0.36710  -0.36524  -0.35565
 Alpha  occ. eigenvalues --   -0.34673  -0.34191  -0.33929  -0.33265  -0.32727
 Alpha  occ. eigenvalues --   -0.32444  -0.31324  -0.30779  -0.29574  -0.28089
 Alpha  occ. eigenvalues --   -0.26451  -0.25631  -0.24826
 Alpha virt. eigenvalues --   -0.01065  -0.00804   0.02918   0.03861   0.04828
 Alpha virt. eigenvalues --    0.05571   0.06302   0.07504   0.07585   0.08718
 Alpha virt. eigenvalues --    0.09303   0.10032   0.11230   0.11255   0.11845

 Mulliken charges:
               1
     1  C   -0.319600
     2  N   -0.529080
     3  C   -0.323558
     4  S    1.316919
     5  O   -0.543694
     6  O   -0.551382
     7  N   -0.713762
     8  C    0.148479
     9  C   -0.499481
    10  S    1.101295
    11  O   -0.528494
    12  O   -0.548401
    13  C   -0.484278
    14  C   -0.293185
    15  C   -0.368879
    16  C    0.136780
    17  C   -0.162634
    18  C   -0.136285
    19  C   -0.138181
    20  C   -0.131789
    21  C   -0.215022
    22  H    0.180817
    23  H    0.172608
    24  H    0.192512
    25  H    0.180284
    26  H    0.204539
    27  H    0.166845
    28  H    0.372158
    29  H    0.220413
    30  H    0.225582
    31  H    0.224792
    32  H    0.239516
    33  H    0.172080
    34  H    0.190858
    35  H    0.156087
    36  H    0.171760
    37  H    0.145595
    38  H    0.143651
    39  H    0.142987
    40  H    0.144841
    41  H    0.136308
 Sum of Mulliken charges =   0.00000

 Dipole moment (field-independent basis, Debye):
    X=             -7.8724    Y=             -0.2488    Z=              2.8323  Tot=              8.3700
 Quadrupole moment (field-independent basis, Debye-Ang):
   XX=           -161.3557   YY=           -135.0309   ZZ=           -135.6845
   XY=             -4.1411   XZ=             -9.2597   YZ=              3.6423

 Normal termination of Gaussian 09 at Fri Oct  2 06:23:43 2020.
