 Gaussian 09, Revision D.01,

 -----------------
 #p b3lyp/6-31G(d)
 -----------------

 -----------------
 SM40.n.22.pdb.xyz
 -----------------
 Symbolic Z-matrix:
 Charge =  0 Multiplicity = 1

 SCF Done:  E(RB3LYP) =  -1714.04028337     A.U. after   16 cycles
 Normal termination of Gaussian 09 at Fri Oct  2 02:08:16 2020.
 Gaussian 09:  AM64L-G09RevD.01 24-Apr-2013

 ----------------------------------------------------------------------
 #p b3lyp/6-31G(d) scrf=(iefpcm,read,solvent=Water) geom=allcheck guess
 =read
 ----------------------------------------------------------------------

 Structure from the checkpoint file:  "SM40.n.22.pdb.xyz.mst.n.w.chk"
 -----------------
 SM40.n.22.pdb.xyz
 -----------------
 Charge =  0 Multiplicity = 1

                         Standard orientation:
 ---------------------------------------------------------------------
 Center     Atomic      Atomic             Coordinates (Angstroms)
 Number     Number       Type             X           Y           Z
 ---------------------------------------------------------------------
      1          6           0        4.685274    0.022554    1.075101
      2          7           0        3.574838    0.182843    0.118748
      3          6           0        3.961439    0.902228   -1.105475
      4         16           0        2.701110   -1.228255   -0.158840
      5          8           0        3.286740   -2.062798   -1.219855
      6          8           0        2.482007   -1.825492    1.166626
      7          7           0        1.303732   -0.597490   -0.829629
      8          6           0        0.127865   -0.207749   -0.009831
      9          6           0       -0.743795    0.724953   -0.917860
     10         16           0       -0.110253    2.188377   -0.037065
     11          8           0        0.952854    2.888949   -0.787236
     12          8           0       -1.166275    3.005498    0.594859
     13          6           0        0.550217    0.872141    1.038649
     14          6           0       -0.597199   -1.448859    0.547062
     15          6           0       -1.878723   -1.240884    1.378167
     16          6           0       -3.137416   -0.906405    0.599957
     17          6           0       -3.594826   -1.753059   -0.419782
     18          6           0       -4.767690   -1.467959   -1.115917
     19          6           0       -5.510620   -0.326736   -0.802917
     20          6           0       -5.069242    0.523254    0.211360
     21          6           0       -3.892722    0.232974    0.906599
     22          1           0        5.025009    1.025044    1.341446
     23          1           0        5.527744   -0.535787    0.649335
     24          1           0        4.324482   -0.481012    1.969740
     25          1           0        4.322347    1.886613   -0.803216
     26          1           0        3.085427    1.027903   -1.740102
     27          1           0        4.752103    0.382693   -1.658863
     28          1           0        1.042778   -1.179968   -1.627382
     29          1           0       -1.813457    0.623380   -0.740458
     30          1           0       -0.513196    0.710610   -1.981501
     31          1           0       -0.010616    0.832609    1.972446
     32          1           0        1.619937    0.965477    1.216941
     33          1           0        0.132333   -1.982521    1.160040
     34          1           0       -0.825755   -2.101082   -0.302335
     35          1           0       -1.722128   -0.486845    2.156761
     36          1           0       -2.046232   -2.183903    1.912364
     37          1           0       -3.025782   -2.643974   -0.668383
     38          1           0       -5.104270   -2.137168   -1.901728
     39          1           0       -6.423717   -0.103612   -1.345335
     40          1           0       -5.637573    1.413656    0.463599
     41          1           0       -3.551119    0.900487    1.691461
 ---------------------------------------------------------------------

 SCF Done:  E(RB3LYP) =  -1714.06426103     A.U. after   11 cycles

 The electronic state is 1-A.
 Alpha  occ. eigenvalues --  -89.14223 -89.09741 -19.16000 -19.15875 -19.15496
 Alpha  occ. eigenvalues --  -19.15338 -14.38040 -14.37991 -10.27793 -10.22824
 Alpha  occ. eigenvalues --  -10.22817 -10.21998 -10.21729 -10.20048 -10.19816
 Alpha  occ. eigenvalues --  -10.19671 -10.19237 -10.19222 -10.19054 -10.19039
 Alpha  occ. eigenvalues --  -10.19020  -8.16447  -8.12809  -6.12935  -6.12879
 Alpha  occ. eigenvalues --   -6.12828  -6.09257  -6.09160  -6.09061  -1.13379
 Alpha  occ. eigenvalues --   -1.10554  -1.01603  -1.00254  -0.95513  -0.94038
 Alpha  occ. eigenvalues --   -0.86195  -0.85325  -0.79429  -0.74674  -0.74363
 Alpha  occ. eigenvalues --   -0.72919  -0.72395  -0.71104  -0.67416  -0.62809
 Alpha  occ. eigenvalues --   -0.60704  -0.60114  -0.58174  -0.57236  -0.54356
 Alpha  occ. eigenvalues --   -0.53182  -0.51785  -0.51399  -0.50401  -0.49079
 Alpha  occ. eigenvalues --   -0.48528  -0.46824  -0.46449  -0.46083  -0.45427
 Alpha  occ. eigenvalues --   -0.45049  -0.44429  -0.43339  -0.42715  -0.42133
 Alpha  occ. eigenvalues --   -0.41906  -0.41549  -0.40958  -0.40647  -0.39593
 Alpha  occ. eigenvalues --   -0.38608  -0.37294  -0.36571  -0.35987  -0.35520
 Alpha  occ. eigenvalues --   -0.34592  -0.33967  -0.33700  -0.33011  -0.32739
 Alpha  occ. eigenvalues --   -0.32506  -0.31779  -0.30834  -0.29565  -0.28444
 Alpha  occ. eigenvalues --   -0.26078  -0.25466  -0.24535
 Alpha virt. eigenvalues --   -0.00779  -0.00495   0.03637   0.04002   0.04980
 Alpha virt. eigenvalues --    0.05972   0.06338   0.06913   0.07816   0.08908
 Alpha virt. eigenvalues --    0.09264   0.10250   0.10484   0.11989   0.12408

 Mulliken charges:
               1
     1  C   -0.327644
     2  N   -0.527756
     3  C   -0.324771
     4  S    1.339405
     5  O   -0.565618
     6  O   -0.579147
     7  N   -0.733497
     8  C    0.157186
     9  C   -0.494524
    10  S    1.117463
    11  O   -0.562620
    12  O   -0.563007
    13  C   -0.505502
    14  C   -0.289033
    15  C   -0.370753
    16  C    0.142014
    17  C   -0.191984
    18  C   -0.146598
    19  C   -0.151028
    20  C   -0.142782
    21  C   -0.204698
    22  H    0.189259
    23  H    0.171177
    24  H    0.197454
    25  H    0.185699
    26  H    0.197829
    27  H    0.169119
    28  H    0.411888
    29  H    0.234155
    30  H    0.235657
    31  H    0.227756
    32  H    0.255186
    33  H    0.188102
    34  H    0.168342
    35  H    0.162436
    36  H    0.179607
    37  H    0.150431
    38  H    0.151177
    39  H    0.150158
    40  H    0.151367
    41  H    0.148093
 Sum of Mulliken charges =   0.00000

 Dipole moment (field-independent basis, Debye):
    X=             -1.0608    Y=             -2.7439    Z=             -0.4335  Tot=              2.9736
 Quadrupole moment (field-independent basis, Debye-Ang):
   XX=           -126.9081   YY=           -165.3747   ZZ=           -132.6243
   XY=             16.6423   XZ=              8.9806   YZ=              3.9579

 Normal termination of Gaussian 09 at Fri Oct  2 02:13:25 2020.
