 Gaussian 09, Revision D.01,

 -----------------
 #p b3lyp/6-31G(d)
 -----------------

 ----------------
 SM40.n.6.pdb.xyz
 ----------------
 Symbolic Z-matrix:
 Charge =  0 Multiplicity = 1

 SCF Done:  E(RB3LYP) =  -1714.03406925     A.U. after   16 cycles
 Normal termination of Gaussian 09 at Fri Oct  2 06:20:00 2020.
 Gaussian 09:  AM64L-G09RevD.01 24-Apr-2013

 ----------------------------------------------------------------------
 #p b3lyp/6-31G(d) scrf=(iefpcm,read,solvent=n-Octanol) geom=allcheck g
 uess=read
 ----------------------------------------------------------------------

 Structure from the checkpoint file:  "SM40.n.6.pdb.xyz.mst.n.o.chk"
 ----------------
 SM40.n.6.pdb.xyz
 ----------------
 Charge =  0 Multiplicity = 1

                         Standard orientation:
 ---------------------------------------------------------------------
 Center     Atomic      Atomic             Coordinates (Angstroms)
 Number     Number       Type             X           Y           Z
 ---------------------------------------------------------------------
      1          6           0       -3.010558   -2.162050    1.267954
      2          7           0       -2.367377   -1.738232    0.017929
      3          6           0       -2.446744   -2.746130   -1.052888
      4         16           0       -2.774432   -0.165737   -0.460471
      5          8           0       -2.273357   -0.028208   -1.828199
      6          8           0       -4.172574    0.140601   -0.147117
      7          7           0       -1.907719    0.867213    0.522639
      8          6           0       -0.437396    0.912111    0.672957
      9          6           0       -0.094733    2.324651    1.260425
     10         16           0        0.836816    2.756060   -0.249637
     11          8           0        0.210032    3.835078   -1.029673
     12          8           0        2.289995    2.798126   -0.000339
     13          6           0        0.261846    1.088411   -0.721561
     14          6           0        0.086436   -0.241919    1.551906
     15          6           0        1.609288   -0.302849    1.812356
     16          6           0        2.426540   -1.048724    0.774945
     17          6           0        3.369431   -0.382389   -0.017651
     18          6           0        4.134727   -1.077188   -0.956468
     19          6           0        3.969727   -2.453116   -1.115631
     20          6           0        3.034091   -3.128929   -0.329557
     21          6           0        2.271966   -2.433326    0.606559
     22          1           0       -2.524005   -3.084166    1.593526
     23          1           0       -4.084056   -2.341646    1.145823
     24          1           0       -2.861891   -1.408250    2.042372
     25          1           0       -1.940059   -3.642088   -0.690336
     26          1           0       -1.931863   -2.373896   -1.935786
     27          1           0       -3.481469   -3.003821   -1.311576
     28          1           0       -2.428162    1.068186    1.374209
     29          1           0        0.540533    2.319168    2.145725
     30          1           0       -0.957428    2.973757    1.398209
     31          1           0        1.094070    0.411975   -0.915475
     32          1           0       -0.432259    1.116361   -1.559297
     33          1           0       -0.252258   -1.180537    1.106884
     34          1           0       -0.426350   -0.147312    2.516297
     35          1           0        1.742689   -0.800163    2.780527
     36          1           0        2.020714    0.703879    1.937666
     37          1           0        3.488128    0.691672    0.097222
     38          1           0        4.858825   -0.540615   -1.561447
     39          1           0        4.564670   -2.994985   -1.843512
     40          1           0        2.902029   -4.200322   -0.441556
     41          1           0        1.555195   -2.971316    1.220829
 ---------------------------------------------------------------------

 SCF Done:  E(RB3LYP) =  -1714.06432978     A.U. after   11 cycles

 The electronic state is 1-A.
 Alpha  occ. eigenvalues --  -89.14389 -89.09779 -19.16024 -19.15827 -19.15384
 Alpha  occ. eigenvalues --  -19.15373 -14.38636 -14.38277 -10.28341 -10.23546
 Alpha  occ. eigenvalues --  -10.23042 -10.22674 -10.22544 -10.20442 -10.20008
 Alpha  occ. eigenvalues --  -10.19973 -10.19198 -10.19089 -10.19068 -10.19001
 Alpha  occ. eigenvalues --  -10.18640  -8.16578  -8.12843  -6.13056  -6.13003
 Alpha  occ. eigenvalues --   -6.12988  -6.09280  -6.09197  -6.09108  -1.13663
 Alpha  occ. eigenvalues --   -1.10682  -1.01985  -1.00437  -0.95670  -0.94439
 Alpha  occ. eigenvalues --   -0.86244  -0.85417  -0.79544  -0.74594  -0.74380
 Alpha  occ. eigenvalues --   -0.73351  -0.72898  -0.71656  -0.67974  -0.63177
 Alpha  occ. eigenvalues --   -0.60928  -0.60383  -0.58513  -0.57427  -0.55613
 Alpha  occ. eigenvalues --   -0.53562  -0.51877  -0.51403  -0.50594  -0.49307
 Alpha  occ. eigenvalues --   -0.48864  -0.47403  -0.46586  -0.46516  -0.45838
 Alpha  occ. eigenvalues --   -0.45162  -0.44754  -0.44149  -0.43221  -0.42619
 Alpha  occ. eigenvalues --   -0.41905  -0.41623  -0.41104  -0.40852  -0.40169
 Alpha  occ. eigenvalues --   -0.39420  -0.37099  -0.36532  -0.35853  -0.35619
 Alpha  occ. eigenvalues --   -0.34626  -0.33864  -0.33461  -0.33189  -0.32824
 Alpha  occ. eigenvalues --   -0.32359  -0.31939  -0.30701  -0.29516  -0.29482
 Alpha  occ. eigenvalues --   -0.26101  -0.25238  -0.24463
 Alpha virt. eigenvalues --   -0.00719  -0.00355   0.02574   0.03363   0.04440
 Alpha virt. eigenvalues --    0.05334   0.05785   0.06421   0.07721   0.08659
 Alpha virt. eigenvalues --    0.09249   0.10078   0.10414   0.11095   0.11646

 Mulliken charges:
               1
     1  C   -0.323459
     2  N   -0.523845
     3  C   -0.322591
     4  S    1.316782
     5  O   -0.559682
     6  O   -0.540710
     7  N   -0.720688
     8  C    0.180853
     9  C   -0.506243
    10  S    1.116811
    11  O   -0.528889
    12  O   -0.548928
    13  C   -0.520208
    14  C   -0.288820
    15  C   -0.378697
    16  C    0.152564
    17  C   -0.219243
    18  C   -0.138074
    19  C   -0.140144
    20  C   -0.136376
    21  C   -0.183167
    22  H    0.182694
    23  H    0.180002
    24  H    0.172867
    25  H    0.177553
    26  H    0.203014
    27  H    0.166825
    28  H    0.385437
    29  H    0.225097
    30  H    0.229673
    31  H    0.229945
    32  H    0.257407
    33  H    0.192466
    34  H    0.150985
    35  H    0.169815
    36  H    0.163348
    37  H    0.171163
    38  H    0.141959
    39  H    0.140266
    40  H    0.139964
    41  H    0.132275
 Sum of Mulliken charges =   0.00000

 Dipole moment (field-independent basis, Debye):
    X=             -0.7334    Y=             -7.3110    Z=              6.2988  Tot=              9.6780
 Quadrupole moment (field-independent basis, Debye-Ang):
   XX=           -155.3714   YY=           -143.9226   ZZ=           -132.1611
   XY=              0.8628   XZ=            -13.1654   YZ=             11.7205

 Normal termination of Gaussian 09 at Fri Oct  2 06:25:04 2020.
