 Gaussian 09, Revision D.01,

 -----------------
 #p b3lyp/6-31G(d)
 -----------------

 -----------------
 SM40.n.18.pdb.xyz
 -----------------
 Symbolic Z-matrix:
 Charge =  0 Multiplicity = 1

 SCF Done:  E(RB3LYP) =  -1714.03935447     A.U. after   15 cycles
 Normal termination of Gaussian 09 at Thu Oct  1 22:35:15 2020.
 Gaussian 09:  AM64L-G09RevD.01 24-Apr-2013

 ----------------------------------------------------------------------
 #p b3lyp/6-31G(d) scrf=(iefpcm,read,solvent=Water) geom=allcheck guess
 =read
 ----------------------------------------------------------------------

 Structure from the checkpoint file:  "SM40.n.18.pdb.xyz.mst.n.w.chk"
 -----------------
 SM40.n.18.pdb.xyz
 -----------------
 Charge =  0 Multiplicity = 1

                         Standard orientation:
 ---------------------------------------------------------------------
 Center     Atomic      Atomic             Coordinates (Angstroms)
 Number     Number       Type             X           Y           Z
 ---------------------------------------------------------------------
      1          6           0       -3.893225    0.610278   -1.291511
      2          7           0       -3.854128   -0.437588   -0.257957
      3          6           0       -4.934735   -1.433160   -0.374477
      4         16           0       -2.334936   -1.080653    0.026336
      5          8           0       -2.524517   -2.202617    0.957176
      6          8           0       -1.556655   -1.341563   -1.197672
      7          7           0       -1.647551    0.268414    0.750333
      8          6           0       -0.173768    0.416820    0.830777
      9          6           0        0.062242    1.814555    1.490237
     10         16           0        0.326765    2.548790   -0.161852
     11          8           0       -0.887577    3.212883   -0.681003
     12          8           0        1.615802    3.253293   -0.305878
     13          6           0        0.388227    0.780771   -0.580868
     14          6           0        0.485331   -0.767521    1.561726
     15          6           0        1.998505   -0.703637    1.850087
     16          6           0        2.918624   -0.951781    0.671466
     17          6           0        3.877603   -0.001851    0.300783
     18          6           0        4.746835   -0.235737   -0.765699
     19          6           0        4.671128   -1.431023   -1.481330
     20          6           0        3.720469   -2.389467   -1.120859
     21          6           0        2.854352   -2.151381   -0.053087
     22          1           0       -4.855441    1.118699   -1.205008
     23          1           0       -3.795174    0.197345   -2.302816
     24          1           0       -3.096729    1.329890   -1.107691
     25          1           0       -5.878757   -0.891249   -0.294409
     26          1           0       -4.861180   -2.145146    0.444563
     27          1           0       -4.911564   -1.965101   -1.332309
     28          1           0       -2.100708    0.415703    1.655173
     29          1           0        0.983405    1.872122    2.068329
     30          1           0       -0.771860    2.240953    2.046003
     31          1           0        1.425020    0.478449   -0.722209
     32          1           0       -0.226606    0.485417   -1.425480
     33          1           0        0.268121   -1.675583    0.990863
     34          1           0       -0.040233   -0.872092    2.516276
     35          1           0        2.195477   -1.468481    2.612912
     36          1           0        2.260486    0.251440    2.314833
     37          1           0        3.938134    0.931103    0.853474
     38          1           0        5.480974    0.516200   -1.037313
     39          1           0        5.345936   -1.615443   -2.310633
     40          1           0        3.656097   -3.323492   -1.668540
     41          1           0        2.121163   -2.903872    0.221133
 ---------------------------------------------------------------------

 SCF Done:  E(RB3LYP) =  -1714.06490057     A.U. after   11 cycles

 The electronic state is 1-A.
 Alpha  occ. eigenvalues --  -89.14059 -89.09772 -19.15770 -19.15671 -19.15547
 Alpha  occ. eigenvalues --  -19.15386 -14.38000 -14.37824 -10.27801 -10.23299
 Alpha  occ. eigenvalues --  -10.22436 -10.21959 -10.21809 -10.20217 -10.20080
 Alpha  occ. eigenvalues --  -10.19772 -10.19250 -10.19220 -10.19075 -10.19062
 Alpha  occ. eigenvalues --  -10.19053  -8.16288  -8.12843  -6.12765  -6.12723
 Alpha  occ. eigenvalues --   -6.12676  -6.09292  -6.09194  -6.09095  -1.13188
 Alpha  occ. eigenvalues --   -1.10627  -1.01277  -1.00322  -0.95604  -0.94035
 Alpha  occ. eigenvalues --   -0.86223  -0.85385  -0.79570  -0.74732  -0.74462
 Alpha  occ. eigenvalues --   -0.72606  -0.72397  -0.71559  -0.67012  -0.62795
 Alpha  occ. eigenvalues --   -0.60746  -0.60186  -0.58432  -0.57260  -0.54754
 Alpha  occ. eigenvalues --   -0.52380  -0.51812  -0.51495  -0.50374  -0.49255
 Alpha  occ. eigenvalues --   -0.48508  -0.47053  -0.46501  -0.46045  -0.45493
 Alpha  occ. eigenvalues --   -0.45037  -0.44112  -0.43755  -0.42778  -0.42113
 Alpha  occ. eigenvalues --   -0.41515  -0.41409  -0.41166  -0.40636  -0.39612
 Alpha  occ. eigenvalues --   -0.38680  -0.37327  -0.36831  -0.35748  -0.35603
 Alpha  occ. eigenvalues --   -0.34422  -0.34340  -0.33645  -0.33181  -0.32930
 Alpha  occ. eigenvalues --   -0.32538  -0.31418  -0.30787  -0.29558  -0.28238
 Alpha  occ. eigenvalues --   -0.26107  -0.25472  -0.24553
 Alpha virt. eigenvalues --   -0.00807  -0.00497   0.03657   0.03912   0.05103
 Alpha virt. eigenvalues --    0.06093   0.06241   0.07547   0.07917   0.08729
 Alpha virt. eigenvalues --    0.09805   0.10343   0.11138   0.11288   0.12283

 Mulliken charges:
               1
     1  C   -0.335364
     2  N   -0.527050
     3  C   -0.324635
     4  S    1.329773
     5  O   -0.571904
     6  O   -0.583799
     7  N   -0.721019
     8  C    0.152188
     9  C   -0.496828
    10  S    1.118890
    11  O   -0.566142
    12  O   -0.560636
    13  C   -0.488162
    14  C   -0.289246
    15  C   -0.374643
    16  C    0.150823
    17  C   -0.207554
    18  C   -0.142230
    19  C   -0.150737
    20  C   -0.146356
    21  C   -0.193047
    22  H    0.186946
    23  H    0.171911
    24  H    0.200583
    25  H    0.187736
    26  H    0.197451
    27  H    0.171750
    28  H    0.413193
    29  H    0.231092
    30  H    0.238411
    31  H    0.228179
    32  H    0.248589
    33  H    0.184639
    34  H    0.172606
    35  H    0.179942
    36  H    0.163862
    37  H    0.147273
    38  H    0.151556
    39  H    0.150464
    40  H    0.151607
    41  H    0.149890
 Sum of Mulliken charges =   0.00000

 Dipole moment (field-independent basis, Debye):
    X=             -2.2571    Y=             -2.1097    Z=              4.2018  Tot=              5.2155
 Quadrupole moment (field-independent basis, Debye-Ang):
   XX=           -118.0066   YY=           -165.3766   ZZ=           -128.0180
   XY=             -7.5060   XZ=              1.1571   YZ=             11.6995

 Normal termination of Gaussian 09 at Thu Oct  1 22:40:27 2020.
