 Gaussian 09, Revision D.01,

 -----------------
 #p b3lyp/6-31G(d)
 -----------------

 -----------------
 SM40.n.30.pdb.xyz
 -----------------
 Symbolic Z-matrix:
 Charge =  0 Multiplicity = 1

 SCF Done:  E(RB3LYP) =  -1714.04056833     A.U. after   15 cycles
 Normal termination of Gaussian 09 at Fri Oct  2 06:19:14 2020.
 Gaussian 09:  AM64L-G09RevD.01 24-Apr-2013

 ----------------------------------------------------------------------
 #p b3lyp/6-31G(d) scrf=(iefpcm,read,solvent=n-Octanol) geom=allcheck g
 uess=read
 ----------------------------------------------------------------------

 Structure from the checkpoint file:  "SM40.n.30.pdb.xyz.mst.n.o.chk"
 -----------------
 SM40.n.30.pdb.xyz
 -----------------
 Charge =  0 Multiplicity = 1

                         Standard orientation:
 ---------------------------------------------------------------------
 Center     Atomic      Atomic             Coordinates (Angstroms)
 Number     Number       Type             X           Y           Z
 ---------------------------------------------------------------------
      1          6           0       -3.780724   -2.493788    0.790203
      2          7           0       -2.893464   -1.771522   -0.134049
      3          6           0       -2.997239   -2.211937   -1.531302
      4         16           0       -2.911208   -0.104365    0.062376
      5          8           0       -3.949035    0.549247   -0.744023
      6          8           0       -2.862291    0.135920    1.510092
      7          7           0       -1.464923    0.315775   -0.692432
      8          6           0       -0.201106    0.407223    0.081267
      9          6           0       -0.223693    1.600625    1.098196
     10         16           0        0.471709    2.686555   -0.196199
     11          8           0       -0.617054    3.310790   -0.976587
     12          8           0        1.633389    3.493160    0.204389
     13          6           0        0.852703    1.032180   -0.889822
     14          6           0        0.136635   -0.969389    0.676004
     15          6           0        1.447896   -1.105121    1.471804
     16          6           0        2.722508   -1.208850    0.654980
     17          6           0        3.819094   -0.383989    0.935025
     18          6           0        5.006760   -0.493459    0.208192
     19          6           0        5.115101   -1.437086   -0.814326
     20          6           0        4.029469   -2.267803   -1.101564
     21          6           0        2.846447   -2.155005   -0.373565
     22          1           0       -3.499710   -3.548802    0.752635
     23          1           0       -4.838973   -2.401214    0.515851
     24          1           0       -3.630343   -2.118875    1.800086
     25          1           0       -2.737850   -3.272413   -1.561488
     26          1           0       -2.279571   -1.655593   -2.133967
     27          1           0       -4.005439   -2.075667   -1.938528
     28          1           0       -1.654845    1.161601   -1.233053
     29          1           0        0.503619    1.499149    1.904958
     30          1           0       -1.199320    1.883590    1.486006
     31          1           0        1.876983    0.755003   -0.640243
     32          1           0        0.659683    0.923232   -1.957325
     33          1           0        0.128076   -1.694115   -0.142853
     34          1           0       -0.696300   -1.237904    1.327889
     35          1           0        1.348238   -2.015678    2.076102
     36          1           0        1.550283   -0.289432    2.195020
     37          1           0        3.738973    0.349250    1.732852
     38          1           0        5.842856    0.158034    0.441622
     39          1           0        6.034595   -1.524643   -1.382907
     40          1           0        4.106139   -3.006336   -1.892828
     41          1           0        2.010414   -2.808552   -0.604810
 ---------------------------------------------------------------------

 SCF Done:  E(RB3LYP) =  -1714.06743009     A.U. after   11 cycles

 The electronic state is 1-A.
 Alpha  occ. eigenvalues --  -89.14053 -89.10037 -19.15959 -19.15943 -19.15697
 Alpha  occ. eigenvalues --  -19.15585 -14.38277 -14.38096 -10.28266 -10.23610
 Alpha  occ. eigenvalues --  -10.23249 -10.22511 -10.22423 -10.20578 -10.20478
 Alpha  occ. eigenvalues --  -10.20399 -10.19581 -10.19565 -10.19447 -10.19446
 Alpha  occ. eigenvalues --  -10.19367  -8.16316  -8.13118  -6.12801  -6.12738
 Alpha  occ. eigenvalues --   -6.12698  -6.09560  -6.09464  -6.09380  -1.13428
 Alpha  occ. eigenvalues --   -1.11043  -1.01646  -1.00885  -0.95778  -0.94511
 Alpha  occ. eigenvalues --   -0.86514  -0.85552  -0.80053  -0.75044  -0.74678
 Alpha  occ. eigenvalues --   -0.73243  -0.72830  -0.71716  -0.68180  -0.63045
 Alpha  occ. eigenvalues --   -0.61140  -0.60421  -0.59017  -0.57062  -0.54279
 Alpha  occ. eigenvalues --   -0.53386  -0.52007  -0.51834  -0.50553  -0.49778
 Alpha  occ. eigenvalues --   -0.48981  -0.47372  -0.46975  -0.46784  -0.45836
 Alpha  occ. eigenvalues --   -0.45303  -0.44947  -0.44483  -0.43399  -0.42620
 Alpha  occ. eigenvalues --   -0.42137  -0.42048  -0.41301  -0.40571  -0.39926
 Alpha  occ. eigenvalues --   -0.39167  -0.37890  -0.36598  -0.36269  -0.35728
 Alpha  occ. eigenvalues --   -0.35285  -0.34319  -0.34180  -0.33330  -0.32777
 Alpha  occ. eigenvalues --   -0.32325  -0.31595  -0.31304  -0.29956  -0.28802
 Alpha  occ. eigenvalues --   -0.26127  -0.25711  -0.24865
 Alpha virt. eigenvalues --   -0.01083  -0.00775   0.03178   0.03970   0.04507
 Alpha virt. eigenvalues --    0.05857   0.06045   0.07069   0.07697   0.08481
 Alpha virt. eigenvalues --    0.09042   0.09504   0.10116   0.10685   0.11909

 Mulliken charges:
               1
     1  C   -0.331206
     2  N   -0.523048
     3  C   -0.326959
     4  S    1.356531
     5  O   -0.542861
     6  O   -0.578544
     7  N   -0.733073
     8  C    0.154717
     9  C   -0.483471
    10  S    1.097876
    11  O   -0.561131
    12  O   -0.519267
    13  C   -0.503299
    14  C   -0.285010
    15  C   -0.374527
    16  C    0.152621
    17  C   -0.203254
    18  C   -0.131319
    19  C   -0.140198
    20  C   -0.135769
    21  C   -0.186676
    22  H    0.181941
    23  H    0.167629
    24  H    0.200725
    25  H    0.179398
    26  H    0.192623
    27  H    0.171645
    28  H    0.380922
    29  H    0.211893
    30  H    0.243847
    31  H    0.233817
    32  H    0.226948
    33  H    0.170848
    34  H    0.189346
    35  H    0.177649
    36  H    0.155519
    37  H    0.140089
    38  H    0.145907
    39  H    0.143950
    40  H    0.144268
    41  H    0.138902
 Sum of Mulliken charges =   0.00000

 Dipole moment (field-independent basis, Debye):
    X=              2.3827    Y=             -8.7529    Z=             -0.1185  Tot=              9.0722
 Quadrupole moment (field-independent basis, Debye-Ang):
   XX=           -143.3412   YY=           -151.4804   ZZ=           -133.7525
   XY=             10.4467   XZ=             -1.7820   YZ=              7.3152

 Normal termination of Gaussian 09 at Fri Oct  2 06:24:10 2020.
