 Gaussian 09, Revision D.01,

 -----------------
 #p b3lyp/6-31G(d)
 -----------------

 -----------------
 SM40.n.18.pdb.xyz
 -----------------
 Symbolic Z-matrix:
 Charge =  0 Multiplicity = 1

 SCF Done:  E(RB3LYP) =  -1714.03980454     A.U. after   15 cycles
 Normal termination of Gaussian 09 at Fri Oct  2 06:17:38 2020.
 Gaussian 09:  AM64L-G09RevD.01 24-Apr-2013

 ----------------------------------------------------------------------
 #p b3lyp/6-31G(d) scrf=(iefpcm,read,solvent=n-Octanol) geom=allcheck g
 uess=read
 ----------------------------------------------------------------------

 Structure from the checkpoint file:  "SM40.n.18.pdb.xyz.mst.n.o.chk"
 -----------------
 SM40.n.18.pdb.xyz
 -----------------
 Charge =  0 Multiplicity = 1

                         Standard orientation:
 ---------------------------------------------------------------------
 Center     Atomic      Atomic             Coordinates (Angstroms)
 Number     Number       Type             X           Y           Z
 ---------------------------------------------------------------------
      1          6           0       -3.837437    0.453221   -1.324133
      2          7           0       -3.772876   -0.574511   -0.274112
      3          6           0       -4.807848   -1.613801   -0.375334
      4         16           0       -2.234061   -1.141024    0.061447
      5          8           0       -2.393204   -2.231250    1.028614
      6          8           0       -1.414380   -1.386225   -1.133529
      7          7           0       -1.634346    0.269278    0.759595
      8          6           0       -0.176169    0.504511    0.857843
      9          6           0       -0.028335    1.940159    1.459688
     10         16           0        0.201569    2.623100   -0.225793
     11          8           0       -1.050759    3.171193   -0.777111
     12          8           0        1.447044    3.392269   -0.378423
     13          6           0        0.388866    0.842721   -0.557110
     14          6           0        0.537953   -0.605261    1.650762
     15          6           0        2.060083   -0.478079    1.859083
     16          6           0        2.926296   -0.862957    0.675736
     17          6           0        3.920788    0.004110    0.209978
     18          6           0        4.742532   -0.354319   -0.858866
     19          6           0        4.582814   -1.592171   -1.479172
     20          6           0        3.595837   -2.468539   -1.022077
     21          6           0        2.776863   -2.106001    0.045566
     22          1           0       -4.823348    0.918428   -1.265482
     23          1           0       -3.699915    0.029624   -2.326507
     24          1           0       -3.078606    1.211331   -1.134921
     25          1           0       -5.776051   -1.116645   -0.298915
     26          1           0       -4.697297   -2.313211    0.451073
     27          1           0       -4.764334   -2.158152   -1.327409
     28          1           0       -2.122683    0.427498    1.640998
     29          1           0        0.889894    2.073137    2.033536
     30          1           0       -0.885179    2.338478    2.001107
     31          1           0        1.447687    0.604693   -0.663675
     32          1           0       -0.184868    0.458962   -1.395089
     33          1           0        0.321669   -1.559798    1.161590
     34          1           0        0.053599   -0.650328    2.631863
     35          1           0        2.314816   -1.127227    2.706260
     36          1           0        2.322381    0.535955    2.179986
     37          1           0        4.047701    0.970418    0.688989
     38          1           0        5.505538    0.334864   -1.206523
     39          1           0        5.219447   -1.873689   -2.310467
     40          1           0        3.464640   -3.435479   -1.497312
     41          1           0        2.012267   -2.794902    0.393851
 ---------------------------------------------------------------------

 SCF Done:  E(RB3LYP) =  -1714.06792980     A.U. after   11 cycles

 The electronic state is 1-A.
 Alpha  occ. eigenvalues --  -89.13896 -89.09479 -19.15556 -19.15494 -19.15104
 Alpha  occ. eigenvalues --  -19.15009 -14.38124 -14.38010 -10.28042 -10.23601
 Alpha  occ. eigenvalues --  -10.22391 -10.22359 -10.22037 -10.20625 -10.20274
 Alpha  occ. eigenvalues --  -10.20199 -10.19325 -10.19299 -10.19167 -10.19162
 Alpha  occ. eigenvalues --  -10.19122  -8.16135  -8.12538  -6.12616  -6.12566
 Alpha  occ. eigenvalues --   -6.12523  -6.08974  -6.08891  -6.08806  -1.13180
 Alpha  occ. eigenvalues --   -1.10387  -1.01273  -1.00099  -0.95784  -0.94226
 Alpha  occ. eigenvalues --   -0.86347  -0.85397  -0.79846  -0.74868  -0.74563
 Alpha  occ. eigenvalues --   -0.72917  -0.72579  -0.71693  -0.67244  -0.62932
 Alpha  occ. eigenvalues --   -0.60886  -0.60306  -0.58600  -0.57593  -0.54989
 Alpha  occ. eigenvalues --   -0.52645  -0.51774  -0.51675  -0.50250  -0.49261
 Alpha  occ. eigenvalues --   -0.48503  -0.47126  -0.46564  -0.46115  -0.45625
 Alpha  occ. eigenvalues --   -0.45044  -0.44375  -0.43967  -0.42771  -0.42332
 Alpha  occ. eigenvalues --   -0.41815  -0.41614  -0.41291  -0.40939  -0.39916
 Alpha  occ. eigenvalues --   -0.38956  -0.37515  -0.37104  -0.35743  -0.35468
 Alpha  occ. eigenvalues --   -0.34510  -0.34193  -0.33761  -0.33330  -0.32698
 Alpha  occ. eigenvalues --   -0.32116  -0.31232  -0.30425  -0.29223  -0.28279
 Alpha  occ. eigenvalues --   -0.26057  -0.25459  -0.24590
 Alpha virt. eigenvalues --   -0.00793  -0.00543   0.03594   0.03924   0.05143
 Alpha virt. eigenvalues --    0.06045   0.06200   0.07512   0.07604   0.08433
 Alpha virt. eigenvalues --    0.09540   0.09896   0.10434   0.11168   0.12005

 Mulliken charges:
               1
     1  C   -0.339452
     2  N   -0.520747
     3  C   -0.326272
     4  S    1.326844
     5  O   -0.550985
     6  O   -0.563529
     7  N   -0.715957
     8  C    0.155829
     9  C   -0.503508
    10  S    1.114284
    11  O   -0.541665
    12  O   -0.536667
    13  C   -0.492974
    14  C   -0.289699
    15  C   -0.372057
    16  C    0.151306
    17  C   -0.200971
    18  C   -0.132100
    19  C   -0.140124
    20  C   -0.136749
    21  C   -0.182364
    22  H    0.178158
    23  H    0.168182
    24  H    0.211105
    25  H    0.180585
    26  H    0.201062
    27  H    0.166073
    28  H    0.379911
    29  H    0.220285
    30  H    0.222977
    31  H    0.224702
    32  H    0.248125
    33  H    0.191199
    34  H    0.160925
    35  H    0.177109
    36  H    0.154063
    37  H    0.140420
    38  H    0.143807
    39  H    0.142372
    40  H    0.143766
    41  H    0.142730
 Sum of Mulliken charges =   0.00000

 Dipole moment (field-independent basis, Debye):
    X=             -1.8019    Y=             -2.0830    Z=              3.5360  Tot=              4.4820
 Quadrupole moment (field-independent basis, Debye-Ang):
   XX=           -118.8581   YY=           -162.8275   ZZ=           -129.8814
   XY=             -4.6270   XZ=              0.8169   YZ=             12.2073

 Normal termination of Gaussian 09 at Fri Oct  2 06:22:30 2020.
