 Gaussian 09, Revision D.01,

 -----------------
 #p b3lyp/6-31G(d)
 -----------------

 --------------------
 SM40_38o.n.2.pdb.xyz
 --------------------
 Symbolic Z-matrix:
 Charge =  0 Multiplicity = 1

 SCF Done:  E(RB3LYP) =  -1714.04116406     A.U. after   16 cycles
 Normal termination of Gaussian 09 at Mon Sep 21 21:01:27 2020.
 Gaussian 09:  AM64L-G09RevD.01 24-Apr-2013

 ----------------------------------------------------------------------
 #p b3lyp/6-31G(d) scrf=(iefpcm,read,solvent=Water) geom=allcheck guess
 =read
 ----------------------------------------------------------------------

 Structure from the checkpoint file:  "SM40_38o.n.2.pdb.xyz.mst.n.w.chk"
 --------------------
 SM40_38o.n.2.pdb.xyz
 --------------------
 Charge =  0 Multiplicity = 1

                         Standard orientation:
 ---------------------------------------------------------------------
 Center     Atomic      Atomic             Coordinates (Angstroms)
 Number     Number       Type             X           Y           Z
 ---------------------------------------------------------------------
      1         16           0       -1.792082   -1.803264   -0.380945
      2          7           0       -1.297807   -0.365289   -1.083415
      3          6           0       -0.350033    0.559246   -0.410893
      4          6           0       -0.939673    1.025330    0.960312
      5         16           0       -1.501893    2.584734    0.201261
      6          6           0       -0.475887    1.930746   -1.157421
      7          8           0       -2.942998    2.563616   -0.123016
      8          8           0       -0.950190    3.797139    0.837483
      9          6           0        1.079913   -0.016395   -0.379832
     10          6           0        2.157695    0.859297    0.287307
     11          6           0        3.524913    0.215279    0.204984
     12          6           0        4.377052    0.480100   -0.874869
     13          6           0        5.627629   -0.133459   -0.968904
     14          6           0        6.046179   -1.025683    0.021148
     15          6           0        5.206382   -1.296409    1.103609
     16          6           0        3.956893   -0.680505    1.192814
     17          8           0       -0.851122   -2.297751    0.633729
     18          8           0       -2.131170   -2.680124   -1.513331
     19          1           0       -1.024723   -0.562828   -2.050005
     20          1           0       -0.185183    1.231204    1.718158
     21          1           0       -1.754006    0.422935    1.359271
     22          1           0        0.459193    2.485355   -1.217106
     23          1           0       -0.980072    1.907694   -2.121105
     24          1           0        1.373018   -0.212582   -1.417044
     25          1           0        1.033943   -0.982961    0.127353
     26          1           0        1.900649    1.024943    1.338942
     27          1           0        2.195770    1.842106   -0.193273
     28          1           0        4.058939    1.178205   -1.644741
     29          1           0        6.275135    0.088654   -1.810792
     30          1           0        7.018242   -1.501239   -0.048170
     31          1           0        5.525101   -1.984120    1.880733
     32          1           0        3.311056   -0.891208    2.039996
     33          7           0       -3.147546   -1.285954    0.471446
     34          6           0       -3.574929   -2.214612    1.534159
     35          1           0       -2.717870   -2.477020    2.152633
     36          1           0       -4.307697   -1.685015    2.144590
     37          1           0       -4.036231   -3.124926    1.134316
     38          6           0       -4.255351   -0.819901   -0.377411
     39          1           0       -4.757552   -1.645777   -0.892924
     40          1           0       -4.971370   -0.315527    0.273422
     41          1           0       -3.876127   -0.103977   -1.104471
 ---------------------------------------------------------------------

 SCF Done:  E(RB3LYP) =  -1714.06689375     A.U. after   11 cycles

 The electronic state is 1-A.
 Alpha  occ. eigenvalues --  -89.14234 -89.09926 -19.16007 -19.15881 -19.15681
 Alpha  occ. eigenvalues --  -19.15482 -14.38096 -14.38069 -10.27928 -10.23230
 Alpha  occ. eigenvalues --  -10.22919 -10.22010 -10.21760 -10.19992 -10.19877
 Alpha  occ. eigenvalues --  -10.19689 -10.19115 -10.19104 -10.18966 -10.18958
 Alpha  occ. eigenvalues --  -10.18949  -8.16462  -8.12990  -6.12949  -6.12893
 Alpha  occ. eigenvalues --   -6.12842  -6.09438  -6.09342  -6.09244  -1.13396
 Alpha  occ. eigenvalues --   -1.10753  -1.01613  -1.00459  -0.95546  -0.94077
 Alpha  occ. eigenvalues --   -0.86075  -0.85473  -0.79542  -0.74466  -0.74375
 Alpha  occ. eigenvalues --   -0.72903  -0.72475  -0.71234  -0.67351  -0.62650
 Alpha  occ. eigenvalues --   -0.60580  -0.60289  -0.58313  -0.57207  -0.54365
 Alpha  occ. eigenvalues --   -0.53311  -0.51836  -0.51141  -0.50274  -0.49647
 Alpha  occ. eigenvalues --   -0.48578  -0.47016  -0.46870  -0.46181  -0.45459
 Alpha  occ. eigenvalues --   -0.45038  -0.44354  -0.43711  -0.42811  -0.41913
 Alpha  occ. eigenvalues --   -0.41835  -0.41500  -0.41029  -0.40619  -0.38697
 Alpha  occ. eigenvalues --   -0.38633  -0.37902  -0.36770  -0.35660  -0.35439
 Alpha  occ. eigenvalues --   -0.34478  -0.33923  -0.33784  -0.33481  -0.32878
 Alpha  occ. eigenvalues --   -0.32606  -0.31795  -0.31030  -0.29722  -0.28561
 Alpha  occ. eigenvalues --   -0.26120  -0.25302  -0.24505
 Alpha virt. eigenvalues --   -0.00425  -0.00382   0.03270   0.03818   0.04820
 Alpha virt. eigenvalues --    0.05940   0.06254   0.06835   0.07823   0.08906
 Alpha virt. eigenvalues --    0.09351   0.10055   0.10778   0.11061   0.12217

 Mulliken charges:
               1
     1  S    1.337395
     2  N   -0.733953
     3  C    0.156782
     4  C   -0.506428
     5  S    1.116300
     6  C   -0.490665
     7  O   -0.561958
     8  O   -0.559890
     9  C   -0.279453
    10  C   -0.383166
    11  C    0.159716
    12  C   -0.195936
    13  C   -0.149788
    14  C   -0.150734
    15  C   -0.149553
    16  C   -0.195358
    17  O   -0.577069
    18  O   -0.565668
    19  H    0.412681
    20  H    0.231024
    21  H    0.255897
    22  H    0.231626
    23  H    0.239392
    24  H    0.166704
    25  H    0.189307
    26  H    0.167927
    27  H    0.164217
    28  H    0.144750
    29  H    0.149942
    30  H    0.148969
    31  H    0.149940
    32  H    0.145596
    33  N   -0.528344
    34  C   -0.327434
    35  H    0.197706
    36  H    0.189356
    37  H    0.171641
    38  C   -0.325254
    39  H    0.169809
    40  H    0.185993
    41  H    0.197982
 Sum of Mulliken charges =   0.00000

 Dipole moment (field-independent basis, Debye):
    X=              1.7646    Y=             -1.3006    Z=             -1.2620  Tot=              2.5294
 Quadrupole moment (field-independent basis, Debye-Ang):
   XX=           -129.2926   YY=           -172.1364   ZZ=           -127.8425
   XY=             11.6057   XZ=             -8.0141   YZ=            -15.3208

 Normal termination of Gaussian 09 at Mon Sep 21 21:06:10 2020.
