 Gaussian 09, Revision D.01,

 -----------------
 #p b3lyp/6-31G(d)
 -----------------

 -----------------
 SM40.n.17.pdb.xyz
 -----------------
 Symbolic Z-matrix:
 Charge =  0 Multiplicity = 1

 SCF Done:  E(RB3LYP) =  -1714.03868013     A.U. after   15 cycles
 Normal termination of Gaussian 09 at Fri Oct  2 06:17:15 2020.
 Gaussian 09:  AM64L-G09RevD.01 24-Apr-2013

 ----------------------------------------------------------------------
 #p b3lyp/6-31G(d) scrf=(iefpcm,read,solvent=n-Octanol) geom=allcheck g
 uess=read
 ----------------------------------------------------------------------

 Structure from the checkpoint file:  "SM40.n.17.pdb.xyz.mst.n.o.chk"
 -----------------
 SM40.n.17.pdb.xyz
 -----------------
 Charge =  0 Multiplicity = 1

                         Standard orientation:
 ---------------------------------------------------------------------
 Center     Atomic      Atomic             Coordinates (Angstroms)
 Number     Number       Type             X           Y           Z
 ---------------------------------------------------------------------
      1          6           0       -4.628901   -0.711147    1.082173
      2          7           0       -3.237740   -1.148362    0.874220
      3          6           0       -2.887387   -2.387017    1.584563
      4         16           0       -2.740797   -1.115707   -0.734784
      5          8           0       -2.991177   -2.377862   -1.437668
      6          8           0       -3.269914    0.133991   -1.289263
      7          7           0       -1.077333   -1.082021   -0.535854
      8          6           0       -0.270999    0.123462   -0.259816
      9          6           0       -0.706077    0.837744    1.059057
     10         16           0       -0.784479    2.443365    0.188183
     11          8           0       -2.123513    3.053531    0.206397
     12          8           0        0.388162    3.287703    0.482831
     13          6           0       -0.489165    1.335449   -1.237182
     14          6           0        1.180301   -0.392466   -0.230895
     15          6           0        2.279631    0.625283    0.106070
     16          6           0        3.644775   -0.026891    0.095037
     17          6           0        4.412368   -0.063154   -1.075868
     18          6           0        5.657975   -0.690441   -1.095880
     19          6           0        6.158203   -1.291274    0.059732
     20          6           0        5.405114   -1.260002    1.234204
     21          6           0        4.159396   -0.632120    1.248772
     22          1           0       -4.759631   -0.545470    2.152987
     23          1           0       -5.358249   -1.459359    0.748373
     24          1           0       -4.792841    0.225135    0.552097
     25          1           0       -3.037798   -2.208794    2.650354
     26          1           0       -1.836699   -2.614482    1.407787
     27          1           0       -3.506105   -3.234925    1.268647
     28          1           0       -0.669909   -1.687741   -1.245454
     29          1           0        0.021471    0.821689    1.869811
     30          1           0       -1.692371    0.530960    1.407206
     31          1           0        0.369780    1.630265   -1.840113
     32          1           0       -1.394500    1.246730   -1.834397
     33          1           0        1.401991   -0.827942   -1.212557
     34          1           0        1.218422   -1.214027    0.490831
     35          1           0        2.091842    1.066499    1.089686
     36          1           0        2.263559    1.451883   -0.610229
     37          1           0        4.032630    0.410031   -1.978227
     38          1           0        6.239775   -0.703978   -2.011589
     39          1           0        7.129242   -1.776297    0.045455
     40          1           0        5.788225   -1.719156    2.139681
     41          1           0        3.581230   -0.604324    2.168538
 ---------------------------------------------------------------------

 SCF Done:  E(RB3LYP) =  -1714.06871179     A.U. after   11 cycles

 The electronic state is 1-A.
 Alpha  occ. eigenvalues --  -89.14349 -89.09440 -19.16094 -19.15915 -19.14985
 Alpha  occ. eigenvalues --  -19.14901 -14.38528 -14.38503 -10.28243 -10.22892
 Alpha  occ. eigenvalues --  -10.22731 -10.22627 -10.22551 -10.21121 -10.20121
 Alpha  occ. eigenvalues --  -10.20016 -10.19255 -10.19237 -10.19149 -10.19147
 Alpha  occ. eigenvalues --  -10.19096  -8.16586  -8.12499  -6.13073  -6.13013
 Alpha  occ. eigenvalues --   -6.12970  -6.08933  -6.08851  -6.08772  -1.13698
 Alpha  occ. eigenvalues --   -1.10293  -1.01897  -0.99995  -0.95875  -0.94507
 Alpha  occ. eigenvalues --   -0.86314  -0.85534  -0.79967  -0.74983  -0.74643
 Alpha  occ. eigenvalues --   -0.73224  -0.72610  -0.71681  -0.67867  -0.62677
 Alpha  occ. eigenvalues --   -0.60802  -0.60645  -0.58344  -0.57310  -0.54513
 Alpha  occ. eigenvalues --   -0.53887  -0.51964  -0.51160  -0.50575  -0.49649
 Alpha  occ. eigenvalues --   -0.48889  -0.47883  -0.46892  -0.46135  -0.45778
 Alpha  occ. eigenvalues --   -0.45018  -0.44826  -0.44079  -0.43138  -0.42182
 Alpha  occ. eigenvalues --   -0.42123  -0.41660  -0.41405  -0.40746  -0.39796
 Alpha  occ. eigenvalues --   -0.39140  -0.37914  -0.36288  -0.35784  -0.35649
 Alpha  occ. eigenvalues --   -0.34866  -0.34081  -0.33862  -0.33375  -0.32790
 Alpha  occ. eigenvalues --   -0.32010  -0.31869  -0.30455  -0.30044  -0.28066
 Alpha  occ. eigenvalues --   -0.26504  -0.25350  -0.24689
 Alpha virt. eigenvalues --   -0.00514  -0.00442   0.02770   0.04110   0.05224
 Alpha virt. eigenvalues --    0.05751   0.05845   0.06310   0.06983   0.08667
 Alpha virt. eigenvalues --    0.09067   0.09536   0.10322   0.10799   0.11866

 Mulliken charges:
               1
     1  C   -0.329970
     2  N   -0.532031
     3  C   -0.324907
     4  S    1.327452
     5  O   -0.543162
     6  O   -0.552012
     7  N   -0.741773
     8  C    0.208656
     9  C   -0.517680
    10  S    1.118866
    11  O   -0.532562
    12  O   -0.554097
    13  C   -0.512075
    14  C   -0.301235
    15  C   -0.378778
    16  C    0.165567
    17  C   -0.187262
    18  C   -0.138437
    19  C   -0.140173
    20  C   -0.138613
    21  C   -0.186691
    22  H    0.183172
    23  H    0.169003
    24  H    0.207446
    25  H    0.182548
    26  H    0.191553
    27  H    0.174593
    28  H    0.384661
    29  H    0.219307
    30  H    0.248231
    31  H    0.216231
    32  H    0.249069
    33  H    0.163749
    34  H    0.173972
    35  H    0.166995
    36  H    0.167079
    37  H    0.134696
    38  H    0.141793
    39  H    0.140850
    40  H    0.141719
    41  H    0.134252
 Sum of Mulliken charges =   0.00000

 Dipole moment (field-independent basis, Debye):
    X=              2.7393    Y=             -6.1782    Z=              2.4226  Tot=              7.1793
 Quadrupole moment (field-independent basis, Debye-Ang):
   XX=           -137.2727   YY=           -163.5903   ZZ=           -128.7533
   XY=              2.4061   XZ=            -17.5271   YZ=            -11.3874

 Normal termination of Gaussian 09 at Fri Oct  2 06:21:52 2020.
