 Gaussian 09, Revision D.01,

 -----------------
 #p b3lyp/6-31G(d)
 -----------------

 -----------------
 SM36.n.11.pdb.xyz
 -----------------
 Symbolic Z-matrix:
 Charge =  0 Multiplicity = 1

 SCF Done:  E(RB3LYP) =  -1735.91578390     A.U. after   16 cycles
 Normal termination of Gaussian 09 at Sat Aug  8 04:20:23 2020.
 Gaussian 09:  AM64L-G09RevD.01 24-Apr-2013

 ----------------------------------------------------------------------
 #p b3lyp/6-31G(d) scrf=(iefpcm,read,solvent=n-Octanol) geom=allcheck g
 uess=read
 ----------------------------------------------------------------------

 Structure from the checkpoint file:  "SM36.n.11.pdb.xyz.mst.n.o.chk"
 -----------------
 SM36.n.11.pdb.xyz
 -----------------
 Charge =  0 Multiplicity = 1

                         Standard orientation:
 ---------------------------------------------------------------------
 Center     Atomic      Atomic             Coordinates (Angstroms)
 Number     Number       Type             X           Y           Z
 ---------------------------------------------------------------------
      1          8           0       -2.428573   -1.051894    2.535516
      2         16           0       -2.279709   -0.144432    1.390639
      3          7           0       -0.693973   -0.353915    0.884668
      4          6           0        0.088528    0.699254    0.218473
      5          6           0        0.340087    2.018157    0.996524
      6         16           0        0.183686    3.036738   -0.562205
      7          8           0        1.537702    3.127502   -1.246048
      8          6           0       -0.624949    1.389798   -0.964537
      9          6           0        1.411233    0.079729   -0.266484
     10          6           0        2.339690   -0.447183    0.839205
     11          6           0        3.715708   -0.796195    0.310688
     12          6           0        4.510282    0.180765   -0.305184
     13          6           0        5.779888   -0.133459   -0.788957
     14          6           0        6.275256   -1.433637   -0.665778
     15          6           0        5.492272   -2.414322   -0.057174
     16          6           0        4.221697   -2.094356    0.425550
     17          6           0       -3.255252   -0.756935    0.021966
     18          6           0       -2.961931   -2.000308   -0.542322
     19          6           0       -3.783217   -2.487766   -1.555984
     20          6           0       -4.882921   -1.741777   -1.988614
     21          6           0       -5.168258   -0.502806   -1.410988
     22          6           0       -4.352148   -0.002595   -0.395192
     23          8           0       -2.604430    1.284078    1.541387
     24          1           0       -0.193314   -0.857527    1.613379
     25          1           0        1.303104    2.141882    1.492704
     26          1           0       -0.485130    2.284013    1.657020
     27          1           0       -0.407606    1.023925   -1.968946
     28          1           0       -1.697270    1.517861   -0.814618
     29          1           0        1.930764    0.865589   -0.823582
     30          1           0        1.178272   -0.724776   -0.972876
     31          1           0        1.914263   -1.336007    1.316781
     32          1           0        2.433973    0.315329    1.623231
     33          1           0        4.127738    1.193273   -0.409247
     34          1           0        6.382380    0.635410   -1.261191
     35          1           0        7.262607   -1.679349   -1.041717
     36          1           0        5.867077   -3.427732    0.041477
     37          1           0        3.613151   -2.858900    0.900361
     38          1           0       -2.100645   -2.563469   -0.205189
     39          1           0       -3.562924   -3.448571   -2.008639
     40          1           0       -5.518439   -2.127248   -2.779761
     41          1           0       -6.021083    0.074393   -1.748703
     42          1           0       -4.546098    0.956728    0.067896
 ---------------------------------------------------------------------

 SCF Done:  E(RB3LYP) =  -1735.94581604     A.U. after   11 cycles

 The electronic state is 1-A.
 Alpha  occ. eigenvalues --  -89.12795 -88.98962 -19.15841 -19.15589 -19.11978
 Alpha  occ. eigenvalues --  -14.37905 -10.26747 -10.23639 -10.22215 -10.21875
 Alpha  occ. eigenvalues --  -10.21753 -10.21644 -10.21230 -10.21100 -10.21072
 Alpha  occ. eigenvalues --  -10.19955 -10.19908 -10.19679 -10.19050 -10.19040
 Alpha  occ. eigenvalues --  -10.18912 -10.18890 -10.18823  -8.15289  -8.03770
 Alpha  occ. eigenvalues --   -6.11801  -6.11723  -6.11568  -6.00180  -5.99992
 Alpha  occ. eigenvalues --   -5.99550  -1.12482  -1.01443  -1.01120  -0.94670
 Alpha  occ. eigenvalues --   -0.88090  -0.85880  -0.84917  -0.79545  -0.78457
 Alpha  occ. eigenvalues --   -0.76901  -0.74448  -0.73991  -0.70561  -0.69352
 Alpha  occ. eigenvalues --   -0.66810  -0.63062  -0.62671  -0.60919  -0.60432
 Alpha  occ. eigenvalues --   -0.58163  -0.57052  -0.55254  -0.53149  -0.52112
 Alpha  occ. eigenvalues --   -0.51167  -0.49414  -0.48473  -0.47946  -0.47152
 Alpha  occ. eigenvalues --   -0.46327  -0.45987  -0.45472  -0.44442  -0.44335
 Alpha  occ. eigenvalues --   -0.43746  -0.42836  -0.42006  -0.41488  -0.40807
 Alpha  occ. eigenvalues --   -0.39597  -0.39219  -0.38703  -0.38491  -0.37354
 Alpha  occ. eigenvalues --   -0.36751  -0.36507  -0.36125  -0.35451  -0.34587
 Alpha  occ. eigenvalues --   -0.33715  -0.33407  -0.33249  -0.32138  -0.31570
 Alpha  occ. eigenvalues --   -0.29234  -0.27363  -0.26949  -0.26548  -0.25136
 Alpha  occ. eigenvalues --   -0.24462  -0.23510
 Alpha virt. eigenvalues --   -0.04292  -0.02303  -0.00446  -0.00070   0.00264
 Alpha virt. eigenvalues --    0.02977   0.04759   0.06056   0.06456   0.07931
 Alpha virt. eigenvalues --    0.08713   0.09584   0.09977   0.10679   0.11561

 Mulliken charges:
               1
     1  O   -0.543197
     2  S    1.214657
     3  N   -0.745013
     4  C    0.213950
     5  C   -0.485814
     6  S    0.748688
     7  O   -0.647783
     8  C   -0.489179
     9  C   -0.296830
    10  C   -0.382426
    11  C    0.173299
    12  C   -0.192545
    13  C   -0.141550
    14  C   -0.140607
    15  C   -0.138483
    16  C   -0.197798
    17  C   -0.148747
    18  C   -0.128740
    19  C   -0.133661
    20  C   -0.123049
    21  C   -0.131003
    22  C   -0.145874
    23  O   -0.571636
    24  H    0.376461
    25  H    0.202268
    26  H    0.224659
    27  H    0.206247
    28  H    0.210283
    29  H    0.196311
    30  H    0.159269
    31  H    0.148443
    32  H    0.162551
    33  H    0.147259
    34  H    0.141234
    35  H    0.139097
    36  H    0.139853
    37  H    0.133630
    38  H    0.173714
    39  H    0.163132
    40  H    0.162063
    41  H    0.163190
    42  H    0.183678
 Sum of Mulliken charges =   0.00000

 Dipole moment (field-independent basis, Debye):
    X=             -1.9609    Y=             -3.7847    Z=             -2.6383  Tot=              5.0130
 Quadrupole moment (field-independent basis, Debye-Ang):
   XX=           -137.2928   YY=           -150.4266   ZZ=           -155.0103
   XY=             -5.3850   XZ=             23.1202   YZ=             10.4351

 Normal termination of Gaussian 09 at Sat Aug  8 04:25:46 2020.
