 Gaussian 09, Revision D.01,

 -----------------
 #p b3lyp/6-31G(d)
 -----------------

 -----------------
 SM36.n.11.pdb.xyz
 -----------------
 Symbolic Z-matrix:
 Charge =  0 Multiplicity = 1

 SCF Done:  E(RB3LYP) =  -1735.91556876     A.U. after   16 cycles
 Normal termination of Gaussian 09 at Sat Aug  8 02:28:25 2020.
 Gaussian 09:  AM64L-G09RevD.01 24-Apr-2013

 ----------------------------------------------------------------------
 #p b3lyp/6-31G(d) scrf=(iefpcm,read,solvent=Water) geom=allcheck guess
 =read
 ----------------------------------------------------------------------

 Structure from the checkpoint file:  "SM36.n.11.pdb.xyz.mst.n.w.chk"
 -----------------
 SM36.n.11.pdb.xyz
 -----------------
 Charge =  0 Multiplicity = 1

                         Standard orientation:
 ---------------------------------------------------------------------
 Center     Atomic      Atomic             Coordinates (Angstroms)
 Number     Number       Type             X           Y           Z
 ---------------------------------------------------------------------
      1          8           0       -2.387691   -0.835212    2.615193
      2         16           0       -2.250757   -0.027772    1.391306
      3          7           0       -0.653613   -0.213257    0.928205
      4          6           0        0.094359    0.804873    0.171655
      5          6           0        0.301470    2.191809    0.837187
      6         16           0        0.073515    3.077869   -0.787702
      7          8           0        1.418239    3.204438   -1.497258
      8          6           0       -0.634415    1.367577   -1.071328
      9          6           0        1.438148    0.183108   -0.254612
     10          6           0        2.359652   -0.248493    0.899598
     11          6           0        3.697382   -0.745019    0.394651
     12          6           0        4.725942    0.155257    0.084060
     13          6           0        5.951131   -0.299435   -0.407984
     14          6           0        6.167389   -1.665797   -0.596425
     15          6           0        5.151330   -2.572662   -0.288338
     16          6           0        3.927455   -2.113916    0.202788
     17          6           0       -3.183692   -0.801902    0.076170
     18          6           0       -2.826222   -2.077316   -0.366994
     19          6           0       -3.612320   -2.694954   -1.336814
     20          6           0       -4.740332   -2.044258   -1.847442
     21          6           0       -5.086912   -0.770612   -1.389985
     22          6           0       -4.308417   -0.139900   -0.419052
     23          8           0       -2.647303    1.392363    1.429834
     24          1           0       -0.142435   -0.597919    1.721624
     25          1           0        1.266794    2.392321    1.304326
     26          1           0       -0.520179    2.479157    1.492941
     27          1           0       -0.373653    0.941439   -2.040571
     28          1           0       -1.714844    1.446254   -0.958483
     29          1           0        1.947815    0.937590   -0.862647
     30          1           0        1.228209   -0.673970   -0.902476
     31          1           0        1.885417   -1.046598    1.482240
     32          1           0        2.512868    0.597745    1.577511
     33          1           0        4.566674    1.220170    0.230908
     34          1           0        6.737052    0.413216   -0.639209
     35          1           0        7.120342   -2.021202   -0.976185
     36          1           0        5.311652   -3.637517   -0.426886
     37          1           0        3.141630   -2.823165    0.445905
     38          1           0       -1.946039   -2.568366    0.028046
     39          1           0       -3.343637   -3.683129   -1.695211
     40          1           0       -5.347627   -2.529891   -2.602941
     41          1           0       -5.961459   -0.266083   -1.787162
     42          1           0       -4.555055    0.848331   -0.051766
 ---------------------------------------------------------------------

 SCF Done:  E(RB3LYP) =  -1735.93831741     A.U. after   11 cycles

 The electronic state is 1-A.
 Alpha  occ. eigenvalues --  -89.12842 -88.98834 -19.15912 -19.15698 -19.12086
 Alpha  occ. eigenvalues --  -14.37448 -10.26421 -10.23437 -10.21923 -10.21515
 Alpha  occ. eigenvalues --  -10.21456 -10.21386 -10.20818 -10.20686 -10.20663
 Alpha  occ. eigenvalues --  -10.19909 -10.19462 -10.19441 -10.19077 -10.19064
 Alpha  occ. eigenvalues --  -10.18917 -10.18905 -10.18898  -8.15329  -8.03651
 Alpha  occ. eigenvalues --   -6.11834  -6.11775  -6.11604  -6.00070  -5.99866
 Alpha  occ. eigenvalues --   -5.99427  -1.12426  -1.01366  -1.00968  -0.94356
 Alpha  occ. eigenvalues --   -0.87775  -0.85817  -0.84715  -0.79317  -0.78161
 Alpha  occ. eigenvalues --   -0.76534  -0.74410  -0.73931  -0.70249  -0.69192
 Alpha  occ. eigenvalues --   -0.66556  -0.62652  -0.62270  -0.60640  -0.60389
 Alpha  occ. eigenvalues --   -0.58035  -0.56763  -0.54779  -0.52917  -0.51810
 Alpha  occ. eigenvalues --   -0.50994  -0.49213  -0.48147  -0.47742  -0.46852
 Alpha  occ. eigenvalues --   -0.46032  -0.45796  -0.45371  -0.44363  -0.43966
 Alpha  occ. eigenvalues --   -0.43502  -0.42681  -0.41870  -0.40944  -0.40748
 Alpha  occ. eigenvalues --   -0.39529  -0.38973  -0.38541  -0.38168  -0.37435
 Alpha  occ. eigenvalues --   -0.36362  -0.36178  -0.35715  -0.35456  -0.34633
 Alpha  occ. eigenvalues --   -0.33606  -0.33325  -0.33235  -0.32153  -0.31584
 Alpha  occ. eigenvalues --   -0.28987  -0.27066  -0.26918  -0.26511  -0.25257
 Alpha  occ. eigenvalues --   -0.24594  -0.23528
 Alpha virt. eigenvalues --   -0.04054  -0.01962  -0.00406  -0.00262   0.00520
 Alpha virt. eigenvalues --    0.03007   0.05232   0.06306   0.06626   0.08388
 Alpha virt. eigenvalues --    0.08854   0.09748   0.10519   0.11091   0.12004

 Mulliken charges:
               1
     1  O   -0.569188
     2  S    1.212826
     3  N   -0.746290
     4  C    0.211773
     5  C   -0.476049
     6  S    0.752955
     7  O   -0.684624
     8  C   -0.488289
     9  C   -0.284293
    10  C   -0.383596
    11  C    0.161823
    12  C   -0.194802
    13  C   -0.150316
    14  C   -0.151025
    15  C   -0.149785
    16  C   -0.197966
    17  C   -0.151418
    18  C   -0.132917
    19  C   -0.140128
    20  C   -0.126944
    21  C   -0.138144
    22  C   -0.142390
    23  O   -0.585123
    24  H    0.408781
    25  H    0.209193
    26  H    0.223454
    27  H    0.215206
    28  H    0.216259
    29  H    0.177233
    30  H    0.163652
    31  H    0.161609
    32  H    0.164475
    33  H    0.144593
    34  H    0.149577
    35  H    0.148437
    36  H    0.149265
    37  H    0.144017
    38  H    0.182604
    39  H    0.170545
    40  H    0.169574
    41  H    0.170169
    42  H    0.185265
 Sum of Mulliken charges =   0.00000

 Dipole moment (field-independent basis, Debye):
    X=             -1.7766    Y=             -4.7113    Z=             -2.2445  Tot=              5.5128
 Quadrupole moment (field-independent basis, Debye-Ang):
   XX=           -138.0515   YY=           -150.1554   ZZ=           -158.0363
   XY=             -2.6862   XZ=             25.7213   YZ=             14.5548

 Normal termination of Gaussian 09 at Sat Aug  8 02:34:34 2020.
