 Gaussian 09, Revision D.01,

 -----------------
 #p b3lyp/6-31G(d)
 -----------------

 ----------------
 SM36.n.3.pdb.xyz
 ----------------
 Symbolic Z-matrix:
 Charge =  0 Multiplicity = 1

 SCF Done:  E(RB3LYP) =  -1735.91286721     A.U. after   16 cycles
 Normal termination of Gaussian 09 at Sat Aug  8 02:28:53 2020.
 Gaussian 09:  AM64L-G09RevD.01 24-Apr-2013

 ----------------------------------------------------------------------
 #p b3lyp/6-31G(d) scrf=(iefpcm,read,solvent=Water) geom=allcheck guess
 =read
 ----------------------------------------------------------------------

 Structure from the checkpoint file:  "SM36.n.3.pdb.xyz.mst.n.w.chk"
 ----------------
 SM36.n.3.pdb.xyz
 ----------------
 Charge =  0 Multiplicity = 1

                         Standard orientation:
 ---------------------------------------------------------------------
 Center     Atomic      Atomic             Coordinates (Angstroms)
 Number     Number       Type             X           Y           Z
 ---------------------------------------------------------------------
      1          8           0       -3.247286   -0.486999    0.915972
      2         16           0       -2.597635   -0.920517   -0.330158
      3          7           0       -1.880341    0.429565   -0.995618
      4          6           0       -1.087365    1.435100   -0.259426
      5          6           0       -1.821206    2.046242    0.956926
      6         16           0       -1.345548    3.785705    0.471691
      7          8           0        0.000424    4.147478    1.094196
      8          6           0       -1.069860    2.758419   -1.064563
      9          6           0        0.339354    1.001629    0.127353
     10          6           0        1.228412    0.567267   -1.051335
     11          6           0        2.659792    0.326536   -0.620638
     12          6           0        3.098084   -0.956613   -0.269371
     13          6           0        4.410866   -1.175771    0.155741
     14          6           0        5.309238   -0.109728    0.234212
     15          6           0        4.884197    1.175354   -0.115422
     16          6           0        3.571355    1.388472   -0.538408
     17          6           0       -1.380470   -2.162558    0.110180
     18          6           0       -1.017437   -2.313602    1.448351
     19          6           0       -0.081528   -3.290233    1.788955
     20          6           0        0.477631   -4.099740    0.796702
     21          6           0        0.100369   -3.940550   -0.540369
     22          6           0       -0.835562   -2.968787   -0.893395
     23          8           0       -3.403915   -1.483374   -1.423947
     24          1           0       -1.519812    0.219101   -1.927657
     25          1           0       -1.466154    1.768459    1.950313
     26          1           0       -2.904412    1.957847    0.897967
     27          1           0       -0.150839    3.017294   -1.591866
     28          1           0       -1.937276    2.874454   -1.716370
     29          1           0        0.281984    0.193958    0.863772
     30          1           0        0.796149    1.858130    0.633311
     31          1           0        1.208087    1.342451   -1.824874
     32          1           0        0.828241   -0.345578   -1.501257
     33          1           0        2.406444   -1.791537   -0.332615
     34          1           0        4.731328   -2.178615    0.419898
     35          1           0        6.330178   -0.277330    0.559943
     36          1           0        5.576550    2.009337   -0.062357
     37          1           0        3.250296    2.389469   -0.812064
     38          1           0       -1.472965   -1.686171    2.204735
     39          1           0        0.204513   -3.419563    2.826763
     40          1           0        1.203434   -4.860121    1.066451
     41          1           0        0.526978   -4.577580   -1.307913
     42          1           0       -1.148417   -2.849439   -1.924103
 ---------------------------------------------------------------------

 SCF Done:  E(RB3LYP) =  -1735.93909713     A.U. after   11 cycles

 The electronic state is 1-A.
 Alpha  occ. eigenvalues --  -89.12706 -88.98851 -19.15651 -19.15464 -19.12158
 Alpha  occ. eigenvalues --  -14.37592 -10.26445 -10.23484 -10.21959 -10.21739
 Alpha  occ. eigenvalues --  -10.21639 -10.21480 -10.20915 -10.20819 -10.20758
 Alpha  occ. eigenvalues --  -10.19852 -10.19351 -10.19298 -10.19056 -10.19042
 Alpha  occ. eigenvalues --  -10.18898 -10.18867 -10.18821  -8.15152  -8.03673
 Alpha  occ. eigenvalues --   -6.11643  -6.11601  -6.11454  -6.00090  -5.99891
 Alpha  occ. eigenvalues --   -5.99447  -1.12310  -1.01303  -1.00981  -0.94195
 Alpha  occ. eigenvalues --   -0.87805  -0.85773  -0.84764  -0.79159  -0.78061
 Alpha  occ. eigenvalues --   -0.76610  -0.74374  -0.73732  -0.70386  -0.69208
 Alpha  occ. eigenvalues --   -0.66436  -0.62721  -0.62526  -0.60516  -0.60351
 Alpha  occ. eigenvalues --   -0.57974  -0.56801  -0.55640  -0.52556  -0.51546
 Alpha  occ. eigenvalues --   -0.51084  -0.49373  -0.48447  -0.47675  -0.47093
 Alpha  occ. eigenvalues --   -0.45838  -0.45675  -0.45311  -0.44085  -0.43923
 Alpha  occ. eigenvalues --   -0.43154  -0.42856  -0.41882  -0.41078  -0.40661
 Alpha  occ. eigenvalues --   -0.39653  -0.38972  -0.38859  -0.38167  -0.36909
 Alpha  occ. eigenvalues --   -0.36382  -0.35908  -0.35761  -0.35270  -0.34227
 Alpha  occ. eigenvalues --   -0.33641  -0.33560  -0.33078  -0.31698  -0.31577
 Alpha  occ. eigenvalues --   -0.29646  -0.27113  -0.27025  -0.26580  -0.25225
 Alpha  occ. eigenvalues --   -0.24575  -0.23377
 Alpha virt. eigenvalues --   -0.04182  -0.02152  -0.00370  -0.00244   0.00155
 Alpha virt. eigenvalues --    0.02959   0.04951   0.06038   0.07735   0.08568
 Alpha virt. eigenvalues --    0.08961   0.09908   0.10864   0.10992   0.11852

 Mulliken charges:
               1
     1  O   -0.578117
     2  S    1.178644
     3  N   -0.716082
     4  C    0.207095
     5  C   -0.469654
     6  S    0.756568
     7  O   -0.684988
     8  C   -0.480692
     9  C   -0.283883
    10  C   -0.373604
    11  C    0.160615
    12  C   -0.201929
    13  C   -0.151228
    14  C   -0.151781
    15  C   -0.150305
    16  C   -0.195693
    17  C   -0.140881
    18  C   -0.151127
    19  C   -0.133586
    20  C   -0.127750
    21  C   -0.136917
    22  C   -0.149273
    23  O   -0.574414
    24  H    0.413485
    25  H    0.211594
    26  H    0.222798
    27  H    0.215039
    28  H    0.217966
    29  H    0.159061
    30  H    0.173001
    31  H    0.162321
    32  H    0.154669
    33  H    0.142873
    34  H    0.148492
    35  H    0.148135
    36  H    0.149199
    37  H    0.143502
    38  H    0.186302
    39  H    0.171535
    40  H    0.170645
    41  H    0.172023
    42  H    0.186341
 Sum of Mulliken charges =   0.00000

 Dipole moment (field-independent basis, Debye):
    X=              4.0318    Y=             -3.8419    Z=             -2.5771  Tot=              6.1366
 Quadrupole moment (field-independent basis, Debye-Ang):
   XX=           -168.1395   YY=           -148.1817   ZZ=           -142.0660
   XY=            -19.4934   XZ=             -0.5911   YZ=            -15.6430

 Normal termination of Gaussian 09 at Sat Aug  8 02:35:04 2020.
