 Gaussian 09, Revision D.01,

 -----------------
 #p b3lyp/6-31G(d)
 -----------------

 -----------------
 SM36.n.10.pdb.xyz
 -----------------
 Symbolic Z-matrix:
 Charge =  0 Multiplicity = 1

 SCF Done:  E(RB3LYP) =  -1735.91509457     A.U. after   16 cycles
 Normal termination of Gaussian 09 at Sat Aug  8 04:21:18 2020.
 Gaussian 09:  AM64L-G09RevD.01 24-Apr-2013

 ----------------------------------------------------------------------
 #p b3lyp/6-31G(d) scrf=(iefpcm,read,solvent=n-Octanol) geom=allcheck g
 uess=read
 ----------------------------------------------------------------------

 Structure from the checkpoint file:  "SM36.n.10.pdb.xyz.mst.n.o.chk"
 -----------------
 SM36.n.10.pdb.xyz
 -----------------
 Charge =  0 Multiplicity = 1

                         Standard orientation:
 ---------------------------------------------------------------------
 Center     Atomic      Atomic             Coordinates (Angstroms)
 Number     Number       Type             X           Y           Z
 ---------------------------------------------------------------------
      1          8           0       -0.996242   -3.835860    0.255082
      2         16           0       -0.630604   -2.521503   -0.292109
      3          7           0       -1.347001   -1.411232    0.757813
      4          6           0       -1.895869   -0.137088    0.260494
      5          6           0       -2.815665    0.506462    1.323447
      6         16           0       -4.015854    1.112969    0.013973
      7          8           0       -3.575488    2.479066   -0.483785
      8          6           0       -3.003582   -0.219986   -0.821487
      9          6           0       -0.790459    0.832265   -0.186690
     10          6           0        0.211703    1.226690    0.911619
     11          6           0        1.193003    2.278383    0.441479
     12          6           0        0.785393    3.606494    0.253061
     13          6           0        1.684081    4.575112   -0.192445
     14          6           0        3.011670    4.231098   -0.457540
     15          6           0        3.430148    2.914076   -0.274115
     16          6           0        2.526003    1.947088    0.172147
     17          6           0        1.133169   -2.298693   -0.080052
     18          6           0        1.706494   -2.503935    1.177454
     19          6           0        3.087375   -2.393576    1.313027
     20          6           0        3.879889   -2.091968    0.199979
     21          6           0        3.292953   -1.898484   -1.052378
     22          6           0        1.908342   -2.002276   -1.199909
     23          8           0       -0.948487   -2.181668   -1.686502
     24          1           0       -1.997345   -1.937918    1.337782
     25          1           0       -2.400208    1.306310    1.935534
     26          1           0       -3.340923   -0.217171    1.952950
     27          1           0       -2.727211    0.024414   -1.847295
     28          1           0       -3.575334   -1.149374   -0.794943
     29          1           0       -1.301586    1.725771   -0.559414
     30          1           0       -0.261901    0.392364   -1.039038
     31          1           0        0.754709    0.341242    1.251061
     32          1           0       -0.339440    1.607216    1.779216
     33          1           0       -0.244298    3.883984    0.459802
     34          1           0        1.349804    5.599194   -0.328498
     35          1           0        3.712489    4.984992   -0.802192
     36          1           0        4.459517    2.636334   -0.474706
     37          1           0        2.857800    0.923335    0.317351
     38          1           0        1.082889   -2.741911    2.031406
     39          1           0        3.545570   -2.545474    2.283645
     40          1           0        4.956050   -2.011224    0.309953
     41          1           0        3.909284   -1.668559   -1.915007
     42          1           0        1.426323   -1.860627   -2.159023
 ---------------------------------------------------------------------

 SCF Done:  E(RB3LYP) =  -1735.94728686     A.U. after   11 cycles

 The electronic state is 1-A.
 Alpha  occ. eigenvalues --  -89.12490 -88.98968 -19.15660 -19.15423 -19.11987
 Alpha  occ. eigenvalues --  -14.37641 -10.26556 -10.23614 -10.22606 -10.21907
 Alpha  occ. eigenvalues --  -10.21852 -10.21733 -10.21304 -10.21176 -10.21130
 Alpha  occ. eigenvalues --  -10.19518 -10.19247 -10.18963 -10.18851 -10.18828
 Alpha  occ. eigenvalues --  -10.18702 -10.18604 -10.18569  -8.15007  -8.03788
 Alpha  occ. eigenvalues --   -6.11511  -6.11440  -6.11289  -6.00197  -6.00012
 Alpha  occ. eigenvalues --   -5.99567  -1.12246  -1.01276  -1.01136  -0.94409
 Alpha  occ. eigenvalues --   -0.88104  -0.85557  -0.84744  -0.78992  -0.78412
 Alpha  occ. eigenvalues --   -0.76933  -0.74162  -0.73666  -0.70747  -0.69310
 Alpha  occ. eigenvalues --   -0.66593  -0.62970  -0.62488  -0.60309  -0.59921
 Alpha  occ. eigenvalues --   -0.57925  -0.57214  -0.55154  -0.53079  -0.51795
 Alpha  occ. eigenvalues --   -0.51050  -0.49546  -0.48712  -0.47745  -0.46552
 Alpha  occ. eigenvalues --   -0.46219  -0.45599  -0.45228  -0.44439  -0.43997
 Alpha  occ. eigenvalues --   -0.43740  -0.42108  -0.41866  -0.41500  -0.41026
 Alpha  occ. eigenvalues --   -0.39350  -0.39222  -0.38770  -0.38444  -0.36984
 Alpha  occ. eigenvalues --   -0.36742  -0.36337  -0.35480  -0.35091  -0.34451
 Alpha  occ. eigenvalues --   -0.33426  -0.33283  -0.32817  -0.32094  -0.31417
 Alpha  occ. eigenvalues --   -0.29356  -0.27407  -0.27031  -0.26547  -0.24895
 Alpha  occ. eigenvalues --   -0.24253  -0.23306
 Alpha virt. eigenvalues --   -0.04316  -0.02305  -0.00152   0.00046   0.00164
 Alpha virt. eigenvalues --    0.02998   0.04568   0.05831   0.06702   0.08081
 Alpha virt. eigenvalues --    0.09074   0.09323   0.10151   0.10783   0.11391

 Mulliken charges:
               1
     1  O   -0.557076
     2  S    1.214372
     3  N   -0.732693
     4  C    0.209822
     5  C   -0.493147
     6  S    0.746795
     7  O   -0.645942
     8  C   -0.460844
     9  C   -0.301058
    10  C   -0.362283
    11  C    0.167004
    12  C   -0.188451
    13  C   -0.140531
    14  C   -0.142019
    15  C   -0.140462
    16  C   -0.199716
    17  C   -0.142287
    18  C   -0.134991
    19  C   -0.133403
    20  C   -0.126025
    21  C   -0.132332
    22  C   -0.142319
    23  O   -0.560102
    24  H    0.374278
    25  H    0.212343
    26  H    0.197751
    27  H    0.213142
    28  H    0.197614
    29  H    0.185593
    30  H    0.165926
    31  H    0.162841
    32  H    0.148789
    33  H    0.138110
    34  H    0.138763
    35  H    0.137032
    36  H    0.136112
    37  H    0.137086
    38  H    0.176037
    39  H    0.164096
    40  H    0.162875
    41  H    0.163693
    42  H    0.185607
 Sum of Mulliken charges =   0.00000

 Dipole moment (field-independent basis, Debye):
    X=              3.3886    Y=             -1.1710    Z=              3.6722  Tot=              5.1322
 Quadrupole moment (field-independent basis, Debye-Ang):
   XX=           -131.2180   YY=           -172.1066   ZZ=           -143.2366
   XY=              3.2105   XZ=            -10.2483   YZ=             -4.2838

 Normal termination of Gaussian 09 at Sat Aug  8 04:27:14 2020.
