 Gaussian 09, Revision D.01,

 -----------------
 #p b3lyp/6-31G(d)
 -----------------

 ----------------
 SM36.n.3.pdb.xyz
 ----------------
 Symbolic Z-matrix:
 Charge =  0 Multiplicity = 1

 SCF Done:  E(RB3LYP) =  -1735.91369810     A.U. after   16 cycles
 Normal termination of Gaussian 09 at Sat Aug  8 05:03:24 2020.
 Gaussian 09:  AM64L-G09RevD.01 24-Apr-2013

 ----------------------------------------------------------------------
 #p b3lyp/6-31G(d) scrf=(iefpcm,read,solvent=n-Octanol) geom=allcheck g
 uess=read
 ----------------------------------------------------------------------

 Structure from the checkpoint file:  "SM36.n.3.pdb.xyz.mst.n.o.chk"
 ----------------
 SM36.n.3.pdb.xyz
 ----------------
 Charge =  0 Multiplicity = 1

                         Standard orientation:
 ---------------------------------------------------------------------
 Center     Atomic      Atomic             Coordinates (Angstroms)
 Number     Number       Type             X           Y           Z
 ---------------------------------------------------------------------
      1          8           0       -3.213726   -0.614844    0.927984
      2         16           0       -2.564362   -1.037713   -0.318596
      3          7           0       -1.891839    0.334470   -0.993922
      4          6           0       -1.154130    1.387956   -0.270846
      5          6           0       -1.918884    1.968163    0.940819
      6         16           0       -1.505848    3.728524    0.453722
      7          8           0       -0.174857    4.132466    1.064464
      8          6           0       -1.203194    2.703408   -1.084494
      9          6           0        0.292074    1.032743    0.121162
     10          6           0        1.198561    0.624452   -1.050878
     11          6           0        2.638371    0.436502   -0.624571
     12          6           0        3.151573   -0.842365   -0.381795
     13          6           0        4.472398   -1.017997    0.033568
     14          6           0        5.303030    0.088396    0.213476
     15          6           0        4.803428    1.369767   -0.025590
     16          6           0        3.482423    1.540401   -0.440964
     17          6           0       -1.284000   -2.212612    0.129596
     18          6           0       -0.882490   -2.307133    1.462966
     19          6           0        0.105485   -3.227101    1.808299
     20          6           0        0.678837   -4.041085    0.827985
     21          6           0        0.260429   -3.942956   -0.503824
     22          6           0       -0.727672   -3.026960   -0.860568
     23          8           0       -3.330131   -1.643063   -1.412606
     24          1           0       -1.566104    0.153743   -1.940164
     25          1           0       -1.556948    1.706721    1.934865
     26          1           0       -2.995761    1.826012    0.875785
     27          1           0       -0.302433    2.999361   -1.623690
     28          1           0       -2.082530    2.773577   -1.727443
     29          1           0        0.276544    0.233102    0.868571
     30          1           0        0.705344    1.919319    0.616564
     31          1           0        1.146481    1.392584   -1.832139
     32          1           0        0.834010   -0.306023   -1.495255
     33          1           0        2.509147   -1.707467   -0.523345
     34          1           0        4.851139   -2.019698    0.213508
     35          1           0        6.330844   -0.046439    0.533665
     36          1           0        5.442259    2.237020    0.106663
     37          1           0        3.103341    2.542129   -0.627219
     38          1           0       -1.356092   -1.681341    2.209723
     39          1           0        0.421389   -3.312860    2.842303
     40          1           0        1.445186   -4.757773    1.100625
     41          1           0        0.694533   -4.586315   -1.260241
     42          1           0       -1.081846   -2.957861   -1.882125
 ---------------------------------------------------------------------

 SCF Done:  E(RB3LYP) =  -1735.94643277     A.U. after   11 cycles

 The electronic state is 1-A.
 Alpha  occ. eigenvalues --  -89.12552 -88.98970 -19.15430 -19.15245 -19.12006
 Alpha  occ. eigenvalues --  -14.37766 -10.26715 -10.23611 -10.22344 -10.21944
 Alpha  occ. eigenvalues --  -10.21912 -10.21760 -10.21349 -10.21252 -10.21165
 Alpha  occ. eigenvalues --  -10.19819 -10.19658 -10.19482 -10.19025 -10.19014
 Alpha  occ. eigenvalues --  -10.18876 -10.18859 -10.18802  -8.14988  -8.03784
 Alpha  occ. eigenvalues --   -6.11490  -6.11425  -6.11293  -6.00192  -6.00012
 Alpha  occ. eigenvalues --   -5.99562  -1.12220  -1.01275  -1.01136  -0.94358
 Alpha  occ. eigenvalues --   -0.88090  -0.85794  -0.84886  -0.79319  -0.78295
 Alpha  occ. eigenvalues --   -0.76986  -0.74365  -0.73795  -0.70744  -0.69286
 Alpha  occ. eigenvalues --   -0.66622  -0.62917  -0.62889  -0.60639  -0.60505
 Alpha  occ. eigenvalues --   -0.58083  -0.57099  -0.56010  -0.52882  -0.51777
 Alpha  occ. eigenvalues --   -0.51223  -0.49544  -0.48583  -0.47833  -0.47299
 Alpha  occ. eigenvalues --   -0.46237  -0.45797  -0.45170  -0.44493  -0.44053
 Alpha  occ. eigenvalues --   -0.43402  -0.42923  -0.41966  -0.41349  -0.40758
 Alpha  occ. eigenvalues --   -0.39765  -0.39183  -0.39092  -0.38518  -0.36964
 Alpha  occ. eigenvalues --   -0.36758  -0.35988  -0.35912  -0.35122  -0.34257
 Alpha  occ. eigenvalues --   -0.33705  -0.33694  -0.32856  -0.31547  -0.31453
 Alpha  occ. eigenvalues --   -0.29749  -0.27407  -0.26951  -0.26655  -0.25085
 Alpha  occ. eigenvalues --   -0.24476  -0.23257
 Alpha virt. eigenvalues --   -0.04428  -0.02484  -0.00331  -0.00091  -0.00064
 Alpha virt. eigenvalues --    0.02863   0.04628   0.05995   0.07569   0.08282
 Alpha virt. eigenvalues --    0.08776   0.09442   0.10321   0.10789   0.11473

 Mulliken charges:
               1
     1  O   -0.561601
     2  S    1.185757
     3  N   -0.713609
     4  C    0.213155
     5  C   -0.470454
     6  S    0.750371
     7  O   -0.646313
     8  C   -0.491381
     9  C   -0.284849
    10  C   -0.373150
    11  C    0.166611
    12  C   -0.192609
    13  C   -0.140721
    14  C   -0.141079
    15  C   -0.140128
    16  C   -0.185753
    17  C   -0.138905
    18  C   -0.150994
    19  C   -0.127733
    20  C   -0.124983
    21  C   -0.134479
    22  C   -0.148694
    23  O   -0.551067
    24  H    0.380871
    25  H    0.205215
    26  H    0.219060
    27  H    0.207569
    28  H    0.208696
    29  H    0.155518
    30  H    0.183497
    31  H    0.152873
    32  H    0.145894
    33  H    0.135344
    34  H    0.137671
    35  H    0.138689
    36  H    0.140297
    37  H    0.136076
    38  H    0.183630
    39  H    0.164487
    40  H    0.163021
    41  H    0.164503
    42  H    0.179697
 Sum of Mulliken charges =   0.00000

 Dipole moment (field-independent basis, Debye):
    X=              3.7461    Y=             -3.2700    Z=             -2.0111  Tot=              5.3638
 Quadrupole moment (field-independent basis, Debye-Ang):
   XX=           -163.9434   YY=           -149.0261   ZZ=           -142.8161
   XY=            -18.2857   XZ=              0.6100   YZ=            -13.1528

 Normal termination of Gaussian 09 at Sat Aug  8 05:09:17 2020.
