 Gaussian 09, Revision D.01,

 -----------------
 #p b3lyp/6-31G(d)
 -----------------

 ----------------
 SM36.n.2.pdb.xyz
 ----------------
 Symbolic Z-matrix:
 Charge =  0 Multiplicity = 1

 SCF Done:  E(RB3LYP) =  -1735.90317395     A.U. after   16 cycles
 Normal termination of Gaussian 09 at Sat Aug  8 02:28:53 2020.
 Gaussian 09:  AM64L-G09RevD.01 24-Apr-2013

 ----------------------------------------------------------------------
 #p b3lyp/6-31G(d) scrf=(iefpcm,read,solvent=Water) geom=allcheck guess
 =read
 ----------------------------------------------------------------------

 Structure from the checkpoint file:  "SM36.n.2.pdb.xyz.mst.n.w.chk"
 ----------------
 SM36.n.2.pdb.xyz
 ----------------
 Charge =  0 Multiplicity = 1

                         Standard orientation:
 ---------------------------------------------------------------------
 Center     Atomic      Atomic             Coordinates (Angstroms)
 Number     Number       Type             X           Y           Z
 ---------------------------------------------------------------------
      1          8           0       -0.154244   -1.365994    1.253224
      2         16           0        0.379428   -1.392686   -0.113941
      3          7           0       -0.034236    0.050442   -0.855004
      4          6           0        0.045443    1.375018   -0.203607
      5          6           0       -0.013774    2.499627   -1.268187
      6         16           0        1.261520    3.530995   -0.368493
      7          8           0        0.570610    4.445814    0.637217
      8          6           0        1.432173    1.816026    0.345502
      9          6           0       -1.038526    1.579310    0.874867
     10          6           0       -2.512377    1.582359    0.409404
     11          6           0       -3.194823    0.244436    0.214128
     12          6           0       -3.534574   -0.556340    1.315288
     13          6           0       -4.197172   -1.771734    1.143628
     14          6           0       -4.542275   -2.209224   -0.138493
     15          6           0       -4.220738   -1.418138   -1.241479
     16          6           0       -3.556193   -0.202777   -1.063322
     17          6           0        2.165061   -1.513357    0.016118
     18          6           0        2.757329   -1.396704    1.274232
     19          6           0        4.143970   -1.498267    1.380827
     20          6           0        4.919498   -1.711735    0.238212
     21          6           0        4.312129   -1.831754   -1.015701
     22          6           0        2.926903   -1.736431   -1.135066
     23          8           0       -0.055672   -2.433716   -1.056328
     24          1           0        0.318274    0.039286   -1.811610
     25          1           0       -0.962360    3.016129   -1.406518
     26          1           0        0.406882    2.224719   -2.238103
     27          1           0        1.574207    1.813132    1.426716
     28          1           0        2.276316    1.337165   -0.152085
     29          1           0       -0.826562    2.559823    1.311842
     30          1           0       -0.887820    0.835536    1.661079
     31          1           0       -2.604340    2.162658   -0.514235
     32          1           0       -3.070753    2.141395    1.168387
     33          1           0       -3.279369   -0.222571    2.316591
     34          1           0       -4.449855   -2.374937    2.010522
     35          1           0       -5.060482   -3.152687   -0.273536
     36          1           0       -4.488984   -1.742585   -2.242672
     37          1           0       -3.312072    0.411137   -1.925747
     38          1           0        2.134760   -1.235343    2.145544
     39          1           0        4.616386   -1.412724    2.353158
     40          1           0        5.998630   -1.789067    0.324119
     41          1           0        4.915769   -2.004751   -1.899870
     42          1           0        2.447965   -1.843083   -2.100624
 ---------------------------------------------------------------------

 SCF Done:  E(RB3LYP) =  -1735.93105470     A.U. after   11 cycles

 The electronic state is 1-A.
 Alpha  occ. eigenvalues --  -89.12378 -88.99038 -19.15343 -19.15153 -19.12286
 Alpha  occ. eigenvalues --  -14.37350 -10.26418 -10.23273 -10.22197 -10.21807
 Alpha  occ. eigenvalues --  -10.21552 -10.21323 -10.20797 -10.20701 -10.20633
 Alpha  occ. eigenvalues --  -10.19138 -10.18720 -10.18698 -10.18536 -10.18508
 Alpha  occ. eigenvalues --  -10.18401 -10.18252 -10.18250  -8.14834  -8.03846
 Alpha  occ. eigenvalues --   -6.11327  -6.11278  -6.11136  -6.00264  -6.00063
 Alpha  occ. eigenvalues --   -5.99620  -1.12014  -1.01164  -1.01030  -0.94023
 Alpha  occ. eigenvalues --   -0.87665  -0.85149  -0.84588  -0.78457  -0.77851
 Alpha  occ. eigenvalues --   -0.76503  -0.73821  -0.73356  -0.70552  -0.68970
 Alpha  occ. eigenvalues --   -0.66019  -0.62794  -0.62331  -0.60004  -0.59702
 Alpha  occ. eigenvalues --   -0.57981  -0.56346  -0.55437  -0.52480  -0.51408
 Alpha  occ. eigenvalues --   -0.50512  -0.49251  -0.48583  -0.47505  -0.45791
 Alpha  occ. eigenvalues --   -0.45562  -0.45299  -0.44812  -0.44204  -0.43959
 Alpha  occ. eigenvalues --   -0.43543  -0.42163  -0.41685  -0.41334  -0.40076
 Alpha  occ. eigenvalues --   -0.39134  -0.38758  -0.38231  -0.37708  -0.37432
 Alpha  occ. eigenvalues --   -0.36305  -0.36240  -0.35257  -0.34498  -0.34094
 Alpha  occ. eigenvalues --   -0.33185  -0.32627  -0.32528  -0.31439  -0.31265
 Alpha  occ. eigenvalues --   -0.29363  -0.27219  -0.26888  -0.26564  -0.24570
 Alpha  occ. eigenvalues --   -0.24052  -0.23183
 Alpha virt. eigenvalues --   -0.04045  -0.02015   0.00083   0.00163   0.00448
 Alpha virt. eigenvalues --    0.02927   0.05009   0.06174   0.07312   0.08938
 Alpha virt. eigenvalues --    0.09517   0.09999   0.10594   0.11443   0.12057

 Mulliken charges:
               1
     1  O   -0.574622
     2  S    1.201004
     3  N   -0.708602
     4  C    0.206822
     5  C   -0.496377
     6  S    0.760933
     7  O   -0.682485
     8  C   -0.489474
     9  C   -0.276112
    10  C   -0.371182
    11  C    0.192385
    12  C   -0.184253
    13  C   -0.153371
    14  C   -0.156310
    15  C   -0.148871
    16  C   -0.196092
    17  C   -0.153682
    18  C   -0.148116
    19  C   -0.135992
    20  C   -0.128709
    21  C   -0.136984
    22  C   -0.148565
    23  O   -0.574238
    24  H    0.398253
    25  H    0.221396
    26  H    0.216432
    27  H    0.216547
    28  H    0.213162
    29  H    0.163507
    30  H    0.181391
    31  H    0.152572
    32  H    0.161990
    33  H    0.136763
    34  H    0.142727
    35  H    0.142558
    36  H    0.142234
    37  H    0.134845
    38  H    0.184942
    39  H    0.169889
    40  H    0.169144
    41  H    0.170477
    42  H    0.184064
 Sum of Mulliken charges =   0.00000

 Dipole moment (field-independent basis, Debye):
    X=              6.8729    Y=              0.2723    Z=             -3.7942  Tot=              7.8553
 Quadrupole moment (field-independent basis, Debye-Ang):
   XX=           -125.6194   YY=           -181.1811   ZZ=           -134.3496
   XY=             -9.0275   XZ=             -1.0601   YZ=            -10.9359

 Normal termination of Gaussian 09 at Sat Aug  8 02:34:59 2020.
