 Gaussian 09, Revision D.01,

 -----------------
 #p b3lyp/6-31G(d)
 -----------------

 ----------------
 SM36.n.7.pdb.xyz
 ----------------
 Symbolic Z-matrix:
 Charge =  0 Multiplicity = 1

 SCF Done:  E(RB3LYP) =  -1735.91599484     A.U. after   16 cycles
 Normal termination of Gaussian 09 at Sat Aug  8 02:28:27 2020.
 Gaussian 09:  AM64L-G09RevD.01 24-Apr-2013

 ----------------------------------------------------------------------
 #p b3lyp/6-31G(d) scrf=(iefpcm,read,solvent=Water) geom=allcheck guess
 =read
 ----------------------------------------------------------------------

 Structure from the checkpoint file:  "SM36.n.7.pdb.xyz.mst.n.w.chk"
 ----------------
 SM36.n.7.pdb.xyz
 ----------------
 Charge =  0 Multiplicity = 1

                         Standard orientation:
 ---------------------------------------------------------------------
 Center     Atomic      Atomic             Coordinates (Angstroms)
 Number     Number       Type             X           Y           Z
 ---------------------------------------------------------------------
      1          8           0       -2.630128   -0.518665    2.654510
      2         16           0       -2.363139    0.112116    1.349651
      3          7           0       -0.697533    0.156697    1.225734
      4          6           0        0.036574    1.158317    0.433810
      5          6           0       -0.116723    2.646984    0.838956
      6         16           0       -0.115026    3.200185   -0.943216
      7          8           0        1.317313    3.463827   -1.399506
      8          6           0       -0.471002    1.364893   -1.013501
      9          6           0        1.524097    0.762387    0.459935
     10          6           0        1.829448   -0.631836   -0.107597
     11          6           0        3.308561   -0.946278   -0.072708
     12          6           0        3.875634   -1.600686    1.029314
     13          6           0        5.245688   -1.867749    1.079714
     14          6           0        6.072689   -1.483707    0.021830
     15          6           0        5.520078   -0.832547   -1.082894
     16          6           0        4.150968   -0.567448   -1.127357
     17          6           0       -2.876922   -1.003273    0.049685
     18          6           0       -2.273048   -2.257675   -0.062954
     19          6           0       -2.736544   -3.140859   -1.035370
     20          6           0       -3.792764   -2.770833   -1.874744
     21          6           0       -4.390237   -1.515754   -1.746056
     22          6           0       -3.935948   -0.621221   -0.775494
     23          8           0       -2.967583    1.425858    1.059247
     24          1           0       -0.293820   -0.011599    2.148087
     25          1           0        0.684823    3.092512    1.428839
     26          1           0       -1.095286    2.879320    1.259160
     27          1           0        0.059815    0.849336   -1.813941
     28          1           0       -1.547637    1.247691   -1.129939
     29          1           0        1.879443    0.825281    1.496128
     30          1           0        2.064890    1.527225   -0.105710
     31          1           0        1.467225   -0.688574   -1.140996
     32          1           0        1.274919   -1.379667    0.465861
     33          1           0        3.236324   -1.907340    1.852189
     34          1           0        5.664124   -2.379195    1.940077
     35          1           0        7.137526   -1.693859    0.057089
     36          1           0        6.154101   -0.534275   -1.911407
     37          1           0        3.727461   -0.063589   -1.992792
     38          1           0       -1.451487   -2.532656    0.587162
     39          1           0       -2.271913   -4.115604   -1.138421
     40          1           0       -4.147271   -3.462716   -2.631080
     41          1           0       -5.208514   -1.229709   -2.397077
     42          1           0       -4.381470    0.359267   -0.657751
 ---------------------------------------------------------------------

 SCF Done:  E(RB3LYP) =  -1735.93978684     A.U. after   11 cycles

 The electronic state is 1-A.
 Alpha  occ. eigenvalues --  -89.12848 -88.98798 -19.15904 -19.15656 -19.12045
 Alpha  occ. eigenvalues --  -14.37408 -10.26386 -10.23448 -10.21934 -10.21553
 Alpha  occ. eigenvalues --  -10.21479 -10.21297 -10.20828 -10.20704 -10.20670
 Alpha  occ. eigenvalues --  -10.19752 -10.19464 -10.19015 -10.19000 -10.18953
 Alpha  occ. eigenvalues --  -10.18864 -10.18818 -10.18815  -8.15327  -8.03616
 Alpha  occ. eigenvalues --   -6.11833  -6.11774  -6.11604  -6.00035  -5.99831
 Alpha  occ. eigenvalues --   -5.99391  -1.12377  -1.01315  -1.00903  -0.94299
 Alpha  occ. eigenvalues --   -0.87787  -0.85720  -0.84671  -0.79152  -0.78180
 Alpha  occ. eigenvalues --   -0.76545  -0.74346  -0.73910  -0.70313  -0.68996
 Alpha  occ. eigenvalues --   -0.66446  -0.62597  -0.62317  -0.60584  -0.60355
 Alpha  occ. eigenvalues --   -0.57893  -0.56874  -0.54841  -0.52512  -0.51769
 Alpha  occ. eigenvalues --   -0.51072  -0.49248  -0.48383  -0.47603  -0.46532
 Alpha  occ. eigenvalues --   -0.46060  -0.45630  -0.45258  -0.44329  -0.43993
 Alpha  occ. eigenvalues --   -0.43504  -0.42458  -0.41874  -0.41250  -0.40500
 Alpha  occ. eigenvalues --   -0.39309  -0.39033  -0.38600  -0.38115  -0.37511
 Alpha  occ. eigenvalues --   -0.36508  -0.36314  -0.35484  -0.35018  -0.34491
 Alpha  occ. eigenvalues --   -0.33479  -0.33246  -0.33190  -0.32109  -0.31489
 Alpha  occ. eigenvalues --   -0.29085  -0.27074  -0.26896  -0.26497  -0.25207
 Alpha  occ. eigenvalues --   -0.24519  -0.23440
 Alpha virt. eigenvalues --   -0.04076  -0.01995  -0.00296  -0.00230   0.00597
 Alpha virt. eigenvalues --    0.03030   0.05219   0.06261   0.06631   0.08185
 Alpha virt. eigenvalues --    0.09158   0.09658   0.10565   0.11030   0.11690

 Mulliken charges:
               1
     1  O   -0.570516
     2  S    1.212679
     3  N   -0.738968
     4  C    0.218262
     5  C   -0.473975
     6  S    0.752157
     7  O   -0.685998
     8  C   -0.488813
     9  C   -0.304363
    10  C   -0.360078
    11  C    0.161079
    12  C   -0.199705
    13  C   -0.149455
    14  C   -0.152494
    15  C   -0.149490
    16  C   -0.197486
    17  C   -0.151863
    18  C   -0.135005
    19  C   -0.139781
    20  C   -0.127160
    21  C   -0.137285
    22  C   -0.143330
    23  O   -0.584950
    24  H    0.407752
    25  H    0.209637
    26  H    0.222734
    27  H    0.215946
    28  H    0.214303
    29  H    0.163030
    30  H    0.177145
    31  H    0.157535
    32  H    0.166662
    33  H    0.143013
    34  H    0.148723
    35  H    0.147729
    36  H    0.148814
    37  H    0.143161
    38  H    0.184414
    39  H    0.170819
    40  H    0.169608
    41  H    0.170337
    42  H    0.185176
 Sum of Mulliken charges =   0.00000

 Dipole moment (field-independent basis, Debye):
    X=             -0.6776    Y=             -5.2818    Z=             -1.6086  Tot=              5.5627
 Quadrupole moment (field-independent basis, Debye-Ang):
   XX=           -149.4418   YY=           -154.7237   ZZ=           -148.5136
   XY=             -2.0899   XZ=             26.2140   YZ=             12.5165

 Normal termination of Gaussian 09 at Sat Aug  8 02:34:23 2020.
