 Gaussian 09, Revision D.01,

 -----------------
 #p b3lyp/6-31G(d)
 -----------------

 -----------------
 SM36.n.10.pdb.xyz
 -----------------
 Symbolic Z-matrix:
 Charge =  0 Multiplicity = 1

 SCF Done:  E(RB3LYP) =  -1735.91440594     A.U. after   16 cycles
 Normal termination of Gaussian 09 at Sat Aug  8 02:28:48 2020.
 Gaussian 09:  AM64L-G09RevD.01 24-Apr-2013

 ----------------------------------------------------------------------
 #p b3lyp/6-31G(d) scrf=(iefpcm,read,solvent=Water) geom=allcheck guess
 =read
 ----------------------------------------------------------------------

 Structure from the checkpoint file:  "SM36.n.10.pdb.xyz.mst.n.w.chk"
 -----------------
 SM36.n.10.pdb.xyz
 -----------------
 Charge =  0 Multiplicity = 1

                         Standard orientation:
 ---------------------------------------------------------------------
 Center     Atomic      Atomic             Coordinates (Angstroms)
 Number     Number       Type             X           Y           Z
 ---------------------------------------------------------------------
      1          8           0       -0.342224   -3.956487    0.148327
      2         16           0       -0.180312   -2.573803   -0.336951
      3          7           0       -1.094015   -1.633489    0.718366
      4          6           0       -1.837178   -0.451991    0.241648
      5          6           0       -2.830136    0.030708    1.328211
      6         16           0       -4.154024    0.398017    0.057376
      7          8           0       -3.994701    1.832783   -0.441272
      8          6           0       -2.937115   -0.706944   -0.823998
      9          6           0       -0.907638    0.685236   -0.209492
     10          6           0        0.036050    1.230702    0.877098
     11          6           0        0.796428    2.454741    0.411326
     12          6           0        0.163465    3.705227    0.338900
     13          6           0        0.853479    4.833288   -0.102829
     14          6           0        2.195284    4.731882   -0.482607
     15          6           0        2.835782    3.493600   -0.415109
     16          6           0        2.140826    2.366496    0.028534
     17          6           0        1.518923   -2.086232   -0.061223
     18          6           0        2.064983   -2.196589    1.220205
     19          6           0        3.408260   -1.880331    1.406890
     20          6           0        4.190660   -1.467960    0.322801
     21          6           0        3.631591   -1.369664   -0.953799
     22          6           0        2.284839   -1.681445   -1.153784
     23          8           0       -0.510773   -2.259311   -1.737338
     24          1           0       -1.675036   -2.279576    1.255148
     25          1           0       -2.548969    0.902990    1.915924
     26          1           0       -3.199602   -0.761201    1.983574
     27          1           0       -2.735424   -0.391429   -1.847110
     28          1           0       -3.332714   -1.724002   -0.808211
     29          1           0       -1.561979    1.489298   -0.561428
     30          1           0       -0.329719    0.348824   -1.076054
     31          1           0        0.742392    0.453519    1.181113
     32          1           0       -0.550380    1.488576    1.766663
     33          1           0       -0.877759    3.793716    0.635506
     34          1           0        0.346787    5.792275   -0.146667
     35          1           0        2.734405    5.609435   -0.824131
     36          1           0        3.878826    3.403808   -0.703231
     37          1           0        2.646380    1.406138    0.082659
     38          1           0        1.452689   -2.517755    2.054237
     39          1           0        3.843813   -1.957389    2.397262
     40          1           0        5.237120   -1.224948    0.473495
     41          1           0        4.238587   -1.053157   -1.794482
     42          1           0        1.828615   -1.612348   -2.133992
 ---------------------------------------------------------------------

 SCF Done:  E(RB3LYP) =  -1735.93904359     A.U. after   11 cycles

 The electronic state is 1-A.
 Alpha  occ. eigenvalues --  -89.12682 -88.98810 -19.15879 -19.15635 -19.12077
 Alpha  occ. eigenvalues --  -14.37425 -10.26352 -10.23467 -10.22148 -10.21602
 Alpha  occ. eigenvalues --  -10.21588 -10.21488 -10.20897 -10.20763 -10.20733
 Alpha  occ. eigenvalues --  -10.19719 -10.19247 -10.18996 -10.18971 -10.18899
 Alpha  occ. eigenvalues --  -10.18842 -10.18772 -10.18735  -8.15191  -8.03637
 Alpha  occ. eigenvalues --   -6.11690  -6.11636  -6.11466  -6.00054  -5.99853
 Alpha  occ. eigenvalues --   -5.99413  -1.12311  -1.01309  -1.00898  -0.94226
 Alpha  occ. eigenvalues --   -0.87822  -0.85675  -0.84593  -0.78984  -0.78175
 Alpha  occ. eigenvalues --   -0.76584  -0.74327  -0.73697  -0.70386  -0.69289
 Alpha  occ. eigenvalues --   -0.66488  -0.62697  -0.62280  -0.60386  -0.59700
 Alpha  occ. eigenvalues --   -0.57914  -0.56966  -0.54820  -0.52820  -0.51639
 Alpha  occ. eigenvalues --   -0.51033  -0.49351  -0.48565  -0.47613  -0.46497
 Alpha  occ. eigenvalues --   -0.45871  -0.45576  -0.45331  -0.44081  -0.43899
 Alpha  occ. eigenvalues --   -0.43457  -0.42080  -0.41785  -0.41566  -0.40889
 Alpha  occ. eigenvalues --   -0.39280  -0.39038  -0.38592  -0.38182  -0.36975
 Alpha  occ. eigenvalues --   -0.36457  -0.36336  -0.35468  -0.35181  -0.34470
 Alpha  occ. eigenvalues --   -0.33535  -0.33338  -0.32896  -0.32185  -0.31587
 Alpha  occ. eigenvalues --   -0.29192  -0.27140  -0.27007  -0.26477  -0.25183
 Alpha  occ. eigenvalues --   -0.24460  -0.23407
 Alpha virt. eigenvalues --   -0.04081  -0.02004  -0.00360  -0.00105   0.00336
 Alpha virt. eigenvalues --    0.03010   0.04998   0.05869   0.06894   0.08359
 Alpha virt. eigenvalues --    0.09163   0.09561   0.10401   0.11173   0.11917

 Mulliken charges:
               1
     1  O   -0.578649
     2  S    1.214514
     3  N   -0.737287
     4  C    0.208391
     5  C   -0.487836
     6  S    0.754136
     7  O   -0.686089
     8  C   -0.463620
     9  C   -0.299776
    10  C   -0.363272
    11  C    0.160797
    12  C   -0.195267
    13  C   -0.150644
    14  C   -0.152580
    15  C   -0.150885
    16  C   -0.206547
    17  C   -0.144348
    18  C   -0.139088
    19  C   -0.138042
    20  C   -0.127027
    21  C   -0.138135
    22  C   -0.141600
    23  O   -0.577036
    24  H    0.402690
    25  H    0.217936
    26  H    0.215290
    27  H    0.214890
    28  H    0.210656
    29  H    0.175490
    30  H    0.168711
    31  H    0.164178
    32  H    0.156917
    33  H    0.143051
    34  H    0.148523
    35  H    0.147597
    36  H    0.147513
    37  H    0.142556
    38  H    0.184209
    39  H    0.171543
    40  H    0.170465
    41  H    0.171210
    42  H    0.186465
 Sum of Mulliken charges =   0.00000

 Dipole moment (field-independent basis, Debye):
    X=              3.8374    Y=             -0.8701    Z=              4.5045  Tot=              5.9811
 Quadrupole moment (field-independent basis, Debye-Ang):
   XX=           -132.8891   YY=           -171.3359   ZZ=           -142.7021
   XY=             12.0180   XZ=            -10.5916   YZ=             -6.9320

 Normal termination of Gaussian 09 at Sat Aug  8 02:34:58 2020.
