 Gaussian 09, Revision D.01,

 -----------------
 #p b3lyp/6-31G(d)
 -----------------

 -----------------
 SM36.n.13.pdb.xyz
 -----------------
 Symbolic Z-matrix:
 Charge =  0 Multiplicity = 1

 SCF Done:  E(RB3LYP) =  -1735.90993476     A.U. after   16 cycles
 Normal termination of Gaussian 09 at Sat Aug  8 02:28:49 2020.
 Gaussian 09:  AM64L-G09RevD.01 24-Apr-2013

 ----------------------------------------------------------------------
 #p b3lyp/6-31G(d) scrf=(iefpcm,read,solvent=Water) geom=allcheck guess
 =read
 ----------------------------------------------------------------------

 Structure from the checkpoint file:  "SM36.n.13.pdb.xyz.mst.n.w.chk"
 -----------------
 SM36.n.13.pdb.xyz
 -----------------
 Charge =  0 Multiplicity = 1

                         Standard orientation:
 ---------------------------------------------------------------------
 Center     Atomic      Atomic             Coordinates (Angstroms)
 Number     Number       Type             X           Y           Z
 ---------------------------------------------------------------------
      1          8           0       -2.703536   -1.689629    2.045731
      2         16           0       -1.859897   -0.775657    1.254976
      3          7           0       -1.006657   -1.780561    0.211682
      4          6           0        0.340639   -1.417814   -0.275838
      5          6           0        0.884971   -2.607599   -1.107984
      6         16           0        2.428077   -2.789272   -0.075692
      7          8           0        3.620461   -2.192329   -0.822974
      8          6           0        1.461187   -1.457299    0.803484
      9          6           0        0.259496   -0.117391   -1.091381
     10          6           0        1.609325    0.424914   -1.615859
     11          6           0        2.285840    1.440904   -0.712279
     12          6           0        3.598157    1.245262   -0.261765
     13          6           0        4.233584    2.201144    0.534666
     14          6           0        3.563826    3.370019    0.896207
     15          6           0        2.253457    3.576484    0.456467
     16          6           0        1.623455    2.620141   -0.339369
     17          6           0       -2.913900    0.194981    0.189203
     18          6           0       -3.695896   -0.443109   -0.775843
     19          6           0       -4.570735    0.320211   -1.543533
     20          6           0       -4.661970    1.701931   -1.339128
     21          6           0       -3.877397    2.322763   -0.365566
     22          6           0       -2.996303    1.569759    0.410215
     23          8           0       -0.964280    0.155625    1.964174
     24          1           0       -1.048818   -2.722071    0.607878
     25          1           0        1.139603   -2.379399   -2.143164
     26          1           0        0.281215   -3.515272   -1.067252
     27          1           0        2.055614   -0.551178    0.915433
     28          1           0        1.138668   -1.818976    1.779525
     29          1           0       -0.216594    0.654605   -0.482227
     30          1           0       -0.412503   -0.319323   -1.931742
     31          1           0        1.416029    0.901576   -2.582819
     32          1           0        2.304712   -0.397986   -1.810445
     33          1           0        4.112616    0.326087   -0.529905
     34          1           0        5.250323    2.028511    0.874637
     35          1           0        4.055265    4.114669    1.515976
     36          1           0        1.723934    4.483779    0.731746
     37          1           0        0.605804    2.792492   -0.679635
     38          1           0       -3.611229   -1.511680   -0.929963
     39          1           0       -5.178704   -0.161037   -2.301744
     40          1           0       -5.344560    2.292353   -1.939979
     41          1           0       -3.949333    3.393127   -0.208495
     42          1           0       -2.373906    2.031385    1.166219
 ---------------------------------------------------------------------

 SCF Done:  E(RB3LYP) =  -1735.93411168     A.U. after   11 cycles

 The electronic state is 1-A.
 Alpha  occ. eigenvalues --  -89.12547 -88.98671 -19.15654 -19.15502 -19.12245
 Alpha  occ. eigenvalues --  -14.37406 -10.26330 -10.23351 -10.21955 -10.21456
 Alpha  occ. eigenvalues --  -10.21391 -10.21337 -10.20778 -10.20654 -10.20610
 Alpha  occ. eigenvalues --  -10.19639 -10.19453 -10.18976 -10.18885 -10.18851
 Alpha  occ. eigenvalues --  -10.18786 -10.18733 -10.18440  -8.15061  -8.03520
 Alpha  occ. eigenvalues --   -6.11559  -6.11503  -6.11340  -5.99944  -5.99737
 Alpha  occ. eigenvalues --   -5.99285  -1.12169  -1.01090  -1.00847  -0.94304
 Alpha  occ. eigenvalues --   -0.87758  -0.85644  -0.84209  -0.78840  -0.78094
 Alpha  occ. eigenvalues --   -0.76518  -0.74265  -0.73778  -0.70428  -0.69284
 Alpha  occ. eigenvalues --   -0.66621  -0.62740  -0.62319  -0.60344  -0.59654
 Alpha  occ. eigenvalues --   -0.58206  -0.56152  -0.54570  -0.52326  -0.51822
 Alpha  occ. eigenvalues --   -0.50821  -0.49212  -0.48284  -0.47570  -0.46669
 Alpha  occ. eigenvalues --   -0.45831  -0.45278  -0.45084  -0.44659  -0.43956
 Alpha  occ. eigenvalues --   -0.43681  -0.42320  -0.41823  -0.41232  -0.40534
 Alpha  occ. eigenvalues --   -0.39324  -0.38959  -0.38430  -0.38153  -0.37346
 Alpha  occ. eigenvalues --   -0.36283  -0.36075  -0.35828  -0.35010  -0.34347
 Alpha  occ. eigenvalues --   -0.33156  -0.33024  -0.32836  -0.31998  -0.31348
 Alpha  occ. eigenvalues --   -0.28928  -0.27147  -0.27019  -0.26399  -0.25098
 Alpha  occ. eigenvalues --   -0.24325  -0.23527
 Alpha virt. eigenvalues --   -0.03990  -0.01939  -0.00480  -0.00126   0.00636
 Alpha virt. eigenvalues --    0.02102   0.05153   0.05859   0.06888   0.08478
 Alpha virt. eigenvalues --    0.09588   0.10183   0.10742   0.11260   0.11793

 Mulliken charges:
               1
     1  O   -0.574060
     2  S    1.214219
     3  N   -0.747034
     4  C    0.232106
     5  C   -0.500855
     6  S    0.764619
     7  O   -0.679086
     8  C   -0.489765
     9  C   -0.300646
    10  C   -0.384041
    11  C    0.151719
    12  C   -0.215889
    13  C   -0.148778
    14  C   -0.153058
    15  C   -0.150936
    16  C   -0.192568
    17  C   -0.146230
    18  C   -0.133615
    19  C   -0.141068
    20  C   -0.127286
    21  C   -0.138200
    22  C   -0.144449
    23  O   -0.581627
    24  H    0.403334
    25  H    0.224225
    26  H    0.218365
    27  H    0.221668
    28  H    0.215201
    29  H    0.176000
    30  H    0.166609
    31  H    0.169595
    32  H    0.172363
    33  H    0.157776
    34  H    0.147367
    35  H    0.146835
    36  H    0.147927
    37  H    0.143117
    38  H    0.182002
    39  H    0.170250
    40  H    0.169119
    41  H    0.169596
    42  H    0.185180
 Sum of Mulliken charges =   0.00000

 Dipole moment (field-independent basis, Debye):
    X=             -5.0869    Y=              0.3201    Z=             -4.4139  Tot=              6.7425
 Quadrupole moment (field-independent basis, Debye-Ang):
   XX=           -158.1800   YY=           -131.0400   ZZ=           -153.7684
   XY=             -2.3417   XZ=             24.6863   YZ=              3.6756

 Normal termination of Gaussian 09 at Sat Aug  8 02:35:01 2020.
