 Gaussian 09, Revision D.01,

 -----------------
 #p b3lyp/6-31G(d)
 -----------------

 ----------------
 SM36.n.9.pdb.xyz
 ----------------
 Symbolic Z-matrix:
 Charge =  0 Multiplicity = 1

 SCF Done:  E(RB3LYP) =  -1735.91152591     A.U. after   16 cycles
 Normal termination of Gaussian 09 at Sat Aug  8 05:45:39 2020.
 Gaussian 09:  AM64L-G09RevD.01 24-Apr-2013

 ----------------------------------------------------------------------
 #p b3lyp/6-31G(d) scrf=(iefpcm,read,solvent=n-Octanol) geom=allcheck g
 uess=read
 ----------------------------------------------------------------------

 Structure from the checkpoint file:  "SM36.n.9.pdb.xyz.mst.n.o.chk"
 ----------------
 SM36.n.9.pdb.xyz
 ----------------
 Charge =  0 Multiplicity = 1

                         Standard orientation:
 ---------------------------------------------------------------------
 Center     Atomic      Atomic             Coordinates (Angstroms)
 Number     Number       Type             X           Y           Z
 ---------------------------------------------------------------------
      1          8           0        3.704473   -1.532941   -0.458544
      2         16           0        2.411678   -0.849135   -0.610992
      3          7           0        1.411688   -1.594481    0.526806
      4          6           0       -0.040091   -1.733882    0.300256
      5          6           0       -0.633471   -2.595895    1.441991
      6         16           0       -1.440590   -3.813096    0.266299
      7          8           0       -2.922565   -3.521327    0.130690
      8          6           0       -0.440753   -2.696582   -0.851035
      9          6           0       -0.666481   -0.334810    0.197772
     10          6           0       -2.197527   -0.295407    0.047725
     11          6           0       -2.706780    1.125914   -0.052315
     12          6           0       -2.775579    1.778349   -1.290055
     13          6           0       -3.219267    3.096986   -1.381764
     14          6           0       -3.603699    3.788145   -0.231366
     15          6           0       -3.542845    3.149542    1.007967
     16          6           0       -3.097979    1.829728    1.093178
     17          6           0        2.578022    0.832147   -0.026622
     18          6           0        2.988685    1.072653    1.285449
     19          6           0        3.181828    2.387636    1.697723
     20          6           0        2.974166    3.441435    0.802535
     21          6           0        2.571537    3.185304   -0.508943
     22          6           0        2.371644    1.870542   -0.933561
     23          8           0        1.760622   -0.795178   -1.928129
     24          1           0        1.870349   -2.465697    0.788574
     25          1           0       -1.372838   -2.104567    2.074827
     26          1           0        0.105243   -3.103056    2.065345
     27          1           0       -1.059630   -2.274046   -1.642768
     28          1           0        0.390375   -3.248647   -1.290485
     29          1           0       -0.215703    0.169570   -0.662215
     30          1           0       -0.370838    0.222476    1.092736
     31          1           0       -2.671062   -0.796681    0.896558
     32          1           0       -2.499237   -0.858542   -0.839894
     33          1           0       -2.484527    1.243958   -2.190314
     34          1           0       -3.269440    3.582566   -2.350913
     35          1           0       -3.952835    4.813690   -0.300853
     36          1           0       -3.844731    3.676038    1.907692
     37          1           0       -3.058120    1.336359    2.060943
     38          1           0        3.139927    0.248011    1.971006
     39          1           0        3.492592    2.591297    2.716726
     40          1           0        3.126000    4.464769    1.129485
     41          1           0        2.411320    4.003768   -1.201934
     42          1           0        2.055231    1.640536   -1.942816
 ---------------------------------------------------------------------

 SCF Done:  E(RB3LYP) =  -1735.94371592     A.U. after   11 cycles

 The electronic state is 1-A.
 Alpha  occ. eigenvalues --  -89.12353 -88.98786 -19.15517 -19.15269 -19.11893
 Alpha  occ. eigenvalues --  -14.37643 -10.26644 -10.23380 -10.22366 -10.21758
 Alpha  occ. eigenvalues --  -10.21652 -10.21511 -10.21032 -10.20912 -10.20869
 Alpha  occ. eigenvalues --  -10.19689 -10.19561 -10.19089 -10.18853 -10.18838
 Alpha  occ. eigenvalues --  -10.18708 -10.18673 -10.18656  -8.14879  -8.03611
 Alpha  occ. eigenvalues --   -6.11384  -6.11309  -6.11160  -6.00024  -5.99843
 Alpha  occ. eigenvalues --   -5.99379  -1.12119  -1.01093  -1.01008  -0.94524
 Alpha  occ. eigenvalues --   -0.87895  -0.85606  -0.84383  -0.79095  -0.78224
 Alpha  occ. eigenvalues --   -0.76709  -0.74201  -0.73826  -0.70936  -0.69283
 Alpha  occ. eigenvalues --   -0.66728  -0.62846  -0.62388  -0.60345  -0.59938
 Alpha  occ. eigenvalues --   -0.58366  -0.56422  -0.54961  -0.52564  -0.52039
 Alpha  occ. eigenvalues --   -0.50638  -0.49292  -0.48570  -0.47826  -0.47309
 Alpha  occ. eigenvalues --   -0.46112  -0.45279  -0.45230  -0.44723  -0.44207
 Alpha  occ. eigenvalues --   -0.43933  -0.42253  -0.41764  -0.41312  -0.40421
 Alpha  occ. eigenvalues --   -0.39755  -0.39077  -0.38467  -0.38280  -0.37777
 Alpha  occ. eigenvalues --   -0.36555  -0.35882  -0.35372  -0.34898  -0.34571
 Alpha  occ. eigenvalues --   -0.33486  -0.33263  -0.32870  -0.31977  -0.31165
 Alpha  occ. eigenvalues --   -0.29153  -0.27153  -0.27005  -0.26366  -0.24897
 Alpha  occ. eigenvalues --   -0.24286  -0.23191
 Alpha virt. eigenvalues --   -0.04054  -0.02062  -0.00036   0.00040   0.00531
 Alpha virt. eigenvalues --    0.02050   0.04792   0.05645   0.06504   0.08198
 Alpha virt. eigenvalues --    0.08614   0.09644   0.10416   0.11107   0.11261

 Mulliken charges:
               1
     1  O   -0.552760
     2  S    1.218307
     3  N   -0.744618
     4  C    0.242993
     5  C   -0.510558
     6  S    0.757248
     7  O   -0.647900
     8  C   -0.488370
     9  C   -0.295637
    10  C   -0.377292
    11  C    0.167978
    12  C   -0.184824
    13  C   -0.136641
    14  C   -0.140353
    15  C   -0.137328
    16  C   -0.186629
    17  C   -0.142914
    18  C   -0.130457
    19  C   -0.134934
    20  C   -0.122415
    21  C   -0.129831
    22  C   -0.143136
    23  O   -0.565907
    24  H    0.374133
    25  H    0.216049
    26  H    0.202370
    27  H    0.212858
    28  H    0.205509
    29  H    0.177322
    30  H    0.163684
    31  H    0.160431
    32  H    0.162179
    33  H    0.132037
    34  H    0.137568
    35  H    0.136569
    36  H    0.137356
    37  H    0.130619
    38  H    0.173281
    39  H    0.161056
    40  H    0.160014
    41  H    0.160805
    42  H    0.182140
 Sum of Mulliken charges =   0.00000

 Dipole moment (field-independent basis, Debye):
    X=              1.9824    Y=              4.0136    Z=              3.8602  Tot=              5.9110
 Quadrupole moment (field-independent basis, Debye-Ang):
   XX=           -176.1616   YY=           -136.6808   ZZ=           -138.7094
   XY=             -4.3352   XZ=              9.2504   YZ=             -4.9451

 Normal termination of Gaussian 09 at Sat Aug  8 05:51:28 2020.
