 Gaussian 09, Revision D.01,

 -----------------
 #p b3lyp/6-31G(d)
 -----------------

 -----------------
 SM36.n.12.pdb.xyz
 -----------------
 Symbolic Z-matrix:
 Charge =  0 Multiplicity = 1

 SCF Done:  E(RB3LYP) =  -1735.91061176     A.U. after   16 cycles
 Normal termination of Gaussian 09 at Sat Aug  8 04:34:02 2020.
 Gaussian 09:  AM64L-G09RevD.01 24-Apr-2013

 ----------------------------------------------------------------------
 #p b3lyp/6-31G(d) scrf=(iefpcm,read,solvent=n-Octanol) geom=allcheck g
 uess=read
 ----------------------------------------------------------------------

 Structure from the checkpoint file:  "SM36.n.12.pdb.xyz.mst.n.o.chk"
 -----------------
 SM36.n.12.pdb.xyz
 -----------------
 Charge =  0 Multiplicity = 1

                         Standard orientation:
 ---------------------------------------------------------------------
 Center     Atomic      Atomic             Coordinates (Angstroms)
 Number     Number       Type             X           Y           Z
 ---------------------------------------------------------------------
      1          8           0       -1.271653   -0.976898   -1.917990
      2         16           0       -1.629533   -1.417801   -0.564819
      3          7           0       -0.429506   -0.868721    0.463771
      4          6           0        0.233647    0.443411    0.424821
      5          6           0       -0.648138    1.719134    0.395904
      6         16           0        0.557245    2.588288   -0.746379
      7          8           0        1.621014    3.296706    0.078902
      8          6           0        0.975465    0.769556   -0.892574
      9          6           0        1.161398    0.509884    1.652870
     10          6           0        2.161615   -0.647762    1.835077
     11          6           0        3.331736   -0.685313    0.873437
     12          6           0        4.308154    0.321429    0.879822
     13          6           0        5.391591    0.271426    0.003865
     14          6           0        5.521145   -0.791526   -0.893729
     15          6           0        4.560190   -1.802809   -0.904726
     16          6           0        3.476932   -1.748382   -0.026242
     17          6           0       -3.179320   -0.612215   -0.147241
     18          6           0       -3.677647    0.366904   -1.008220
     19          6           0       -4.877450    1.001474   -0.689404
     20          6           0       -5.563272    0.655709    0.475986
     21          6           0       -5.057718   -0.334155    1.325594
     22          6           0       -3.861619   -0.977755    1.016915
     23          8           0       -1.776387   -2.838202   -0.236575
     24          1           0       -0.571815   -1.248888    1.397050
     25          1           0       -0.803054    2.242518    1.340249
     26          1           0       -1.593737    1.601820   -0.135274
     27          1           0        2.044226    0.571665   -0.927285
     28          1           0        0.463361    0.371853   -1.768590
     29          1           0        0.520281    0.554352    2.541762
     30          1           0        1.683897    1.469929    1.597726
     31          1           0        1.629758   -1.600359    1.772587
     32          1           0        2.543960   -0.570968    2.858355
     33          1           0        4.219560    1.152080    1.575873
     34          1           0        6.137190    1.059637    0.023362
     35          1           0        6.364772   -0.831264   -1.574492
     36          1           0        4.653235   -2.635014   -1.595602
     37          1           0        2.727015   -2.533849   -0.035599
     38          1           0       -3.135619    0.600440   -1.915526
     39          1           0       -5.276935    1.759341   -1.354734
     40          1           0       -6.496163    1.151271    0.721431
     41          1           0       -5.598138   -0.608967    2.224735
     42          1           0       -3.472684   -1.759267    1.659102
 ---------------------------------------------------------------------

 SCF Done:  E(RB3LYP) =  -1735.94202014     A.U. after   11 cycles

 The electronic state is 1-A.
 Alpha  occ. eigenvalues --  -89.12775 -88.98578 -19.15763 -19.15488 -19.11557
 Alpha  occ. eigenvalues --  -14.37958 -10.26624 -10.23755 -10.22090 -10.21876
 Alpha  occ. eigenvalues --  -10.21843 -10.21385 -10.21310 -10.21266 -10.21006
 Alpha  occ. eigenvalues --  -10.19916 -10.19685 -10.19434 -10.18994 -10.18959
 Alpha  occ. eigenvalues --  -10.18839 -10.18766 -10.18730  -8.15222  -8.03390
 Alpha  occ. eigenvalues --   -6.11724  -6.11658  -6.11524  -5.99801  -5.99610
 Alpha  occ. eigenvalues --   -5.99173  -1.12500  -1.01588  -1.00646  -0.94512
 Alpha  occ. eigenvalues --   -0.88208  -0.85728  -0.84619  -0.79256  -0.78374
 Alpha  occ. eigenvalues --   -0.77107  -0.74333  -0.74035  -0.70077  -0.69254
 Alpha  occ. eigenvalues --   -0.66579  -0.63154  -0.62679  -0.61299  -0.60348
 Alpha  occ. eigenvalues --   -0.57967  -0.57018  -0.56013  -0.52643  -0.52021
 Alpha  occ. eigenvalues --   -0.50699  -0.49687  -0.47963  -0.47730  -0.46596
 Alpha  occ. eigenvalues --   -0.46391  -0.45906  -0.45370  -0.45053  -0.44604
 Alpha  occ. eigenvalues --   -0.43757  -0.42647  -0.41700  -0.41585  -0.40245
 Alpha  occ. eigenvalues --   -0.39234  -0.38997  -0.38768  -0.38332  -0.37367
 Alpha  occ. eigenvalues --   -0.36887  -0.36762  -0.35887  -0.35256  -0.34035
 Alpha  occ. eigenvalues --   -0.33441  -0.33254  -0.32993  -0.31757  -0.31359
 Alpha  occ. eigenvalues --   -0.29840  -0.27570  -0.26884  -0.26126  -0.25071
 Alpha  occ. eigenvalues --   -0.24375  -0.23080
 Alpha virt. eigenvalues --   -0.04520  -0.02611  -0.00502  -0.00108   0.00859
 Alpha virt. eigenvalues --    0.03264   0.04973   0.06303   0.06534   0.07844
 Alpha virt. eigenvalues --    0.08887   0.09734   0.10460   0.11136   0.11830

 Mulliken charges:
               1
     1  O   -0.564484
     2  S    1.191265
     3  N   -0.711776
     4  C    0.235438
     5  C   -0.489903
     6  S    0.736619
     7  O   -0.650859
     8  C   -0.487132
     9  C   -0.333183
    10  C   -0.351761
    11  C    0.153508
    12  C   -0.181164
    13  C   -0.137887
    14  C   -0.142047
    15  C   -0.135954
    16  C   -0.193103
    17  C   -0.142891
    18  C   -0.161631
    19  C   -0.128445
    20  C   -0.123538
    21  C   -0.130149
    22  C   -0.145239
    23  O   -0.546218
    24  H    0.373228
    25  H    0.203721
    26  H    0.195637
    27  H    0.219668
    28  H    0.228190
    29  H    0.150062
    30  H    0.197123
    31  H    0.154403
    32  H    0.163123
    33  H    0.138541
    34  H    0.140548
    35  H    0.139265
    36  H    0.140194
    37  H    0.139200
    38  H    0.186807
    39  H    0.164984
    40  H    0.163638
    41  H    0.164657
    42  H    0.177546
 Sum of Mulliken charges =   0.00000

 Dipole moment (field-independent basis, Debye):
    X=             -4.8537    Y=              0.7969    Z=              3.7521  Tot=              6.1864
 Quadrupole moment (field-independent basis, Debye-Ang):
   XX=           -123.6329   YY=           -170.4547   ZZ=           -141.4733
   XY=            -17.7162   XZ=            -10.2683   YZ=             -6.3791

 Normal termination of Gaussian 09 at Sat Aug  8 04:39:43 2020.
