 Gaussian 09, Revision D.01,

 -----------------
 #p b3lyp/6-31G(d)
 -----------------

 ----------------
 SM36.n.1.pdb.xyz
 ----------------
 Symbolic Z-matrix:
 Charge =  0 Multiplicity = 1

 SCF Done:  E(RB3LYP) =  -1735.91412653     A.U. after   16 cycles
 Normal termination of Gaussian 09 at Sat Aug  8 02:28:52 2020.
 Gaussian 09:  AM64L-G09RevD.01 24-Apr-2013

 ----------------------------------------------------------------------
 #p b3lyp/6-31G(d) scrf=(iefpcm,read,solvent=Water) geom=allcheck guess
 =read
 ----------------------------------------------------------------------

 Structure from the checkpoint file:  "SM36.n.1.pdb.xyz.mst.n.w.chk"
 ----------------
 SM36.n.1.pdb.xyz
 ----------------
 Charge =  0 Multiplicity = 1

                         Standard orientation:
 ---------------------------------------------------------------------
 Center     Atomic      Atomic             Coordinates (Angstroms)
 Number     Number       Type             X           Y           Z
 ---------------------------------------------------------------------
      1          8           0        0.023198    1.396223    2.624808
      2         16           0        0.889349    0.925522    1.530804
      3          7           0        0.068044   -0.368017    0.860971
      4          6           0        0.715008   -1.493457    0.172338
      5          6           0        1.786376   -2.304835    0.952535
      6         16           0        2.855236   -2.481108   -0.567293
      7          8           0        2.456460   -3.739017   -1.334461
      8          6           0        1.671244   -1.091416   -0.976581
      9          6           0       -0.379135   -2.461509   -0.320108
     10          6           0       -1.426949   -1.895353   -1.295247
     11          6           0       -2.596784   -1.151195   -0.679632
     12          6           0       -3.005696    0.082299   -1.202479
     13          6           0       -4.112036    0.757202   -0.681654
     14          6           0       -4.832223    0.205037    0.379983
     15          6           0       -4.438925   -1.026607    0.907604
     16          6           0       -3.334844   -1.697568    0.381003
     17          6           0        0.918590    2.169852    0.246081
     18          6           0       -0.280435    2.574380   -0.348400
     19          6           0       -0.248105    3.593324   -1.297472
     20          6           0        0.966732    4.199347   -1.637479
     21          6           0        2.154358    3.788634   -1.030121
     22          6           0        2.136723    2.768150   -0.077633
     23          8           0        2.291955    0.582163    1.828544
     24          1           0       -0.691969   -0.637751    1.486164
     25          1           0        1.478572   -3.263964    1.372675
     26          1           0        2.334125   -1.708865    1.681100
     27          1           0        1.282634   -1.133079   -1.995243
     28          1           0        2.199539   -0.153173   -0.810706
     29          1           0       -0.873349   -2.897690    0.555861
     30          1           0        0.156998   -3.280429   -0.808808
     31          1           0       -1.823650   -2.745649   -1.862929
     32          1           0       -0.939452   -1.247599   -2.031972
     33          1           0       -2.447880    0.515387   -2.028215
     34          1           0       -4.408583    1.712225   -1.102969
     35          1           0       -5.691487    0.727739    0.789443
     36          1           0       -4.994828   -1.467586    1.729457
     37          1           0       -3.046813   -2.658732    0.796956
     38          1           0       -1.215230    2.095398   -0.085598
     39          1           0       -1.169260    3.913499   -1.771150
     40          1           0        0.984245    4.991349   -2.378626
     41          1           0        3.095811    4.259264   -1.294303
     42          1           0        3.044623    2.432504    0.408332
 ---------------------------------------------------------------------

 SCF Done:  E(RB3LYP) =  -1735.93589822     A.U. after   11 cycles

 The electronic state is 1-A.
 Alpha  occ. eigenvalues --  -89.12866 -88.98809 -19.15923 -19.15666 -19.12095
 Alpha  occ. eigenvalues --  -14.37417 -10.26432 -10.23439 -10.21959 -10.21493
 Alpha  occ. eigenvalues --  -10.21465 -10.21234 -10.20837 -10.20719 -10.20676
 Alpha  occ. eigenvalues --  -10.19862 -10.19571 -10.19221 -10.19087 -10.19076
 Alpha  occ. eigenvalues --  -10.18869 -10.18836 -10.18795  -8.15339  -8.03629
 Alpha  occ. eigenvalues --   -6.11846  -6.11788  -6.11615  -6.00050  -5.99842
 Alpha  occ. eigenvalues --   -5.99405  -1.12416  -1.01382  -1.00950  -0.94246
 Alpha  occ. eigenvalues --   -0.87765  -0.85697  -0.84684  -0.79080  -0.78144
 Alpha  occ. eigenvalues --   -0.76546  -0.74432  -0.73872  -0.70286  -0.69232
 Alpha  occ. eigenvalues --   -0.66470  -0.62829  -0.62451  -0.60607  -0.60343
 Alpha  occ. eigenvalues --   -0.57949  -0.56764  -0.54903  -0.52500  -0.51723
 Alpha  occ. eigenvalues --   -0.51180  -0.49269  -0.48439  -0.47640  -0.46106
 Alpha  occ. eigenvalues --   -0.45863  -0.45453  -0.45147  -0.44711  -0.44034
 Alpha  occ. eigenvalues --   -0.43641  -0.43401  -0.41973  -0.41267  -0.40211
 Alpha  occ. eigenvalues --   -0.39108  -0.38946  -0.38315  -0.38108  -0.37828
 Alpha  occ. eigenvalues --   -0.36514  -0.36391  -0.35905  -0.35171  -0.34382
 Alpha  occ. eigenvalues --   -0.33484  -0.33234  -0.33151  -0.32064  -0.31484
 Alpha  occ. eigenvalues --   -0.29128  -0.27103  -0.26918  -0.26465  -0.25245
 Alpha  occ. eigenvalues --   -0.24371  -0.23477
 Alpha virt. eigenvalues --   -0.04116  -0.02006  -0.00527  -0.00188   0.00620
 Alpha virt. eigenvalues --    0.02979   0.05419   0.06221   0.06654   0.08273
 Alpha virt. eigenvalues --    0.09341   0.09563   0.10452   0.11039   0.11917

 Mulliken charges:
               1
     1  O   -0.573303
     2  S    1.211669
     3  N   -0.735301
     4  C    0.222295
     5  C   -0.477654
     6  S    0.751121
     7  O   -0.687909
     8  C   -0.485623
     9  C   -0.318520
    10  C   -0.351927
    11  C    0.177794
    12  C   -0.208515
    13  C   -0.146421
    14  C   -0.153178
    15  C   -0.146980
    16  C   -0.209162
    17  C   -0.152216
    18  C   -0.136902
    19  C   -0.142728
    20  C   -0.127133
    21  C   -0.137369
    22  C   -0.144075
    23  O   -0.581536
    24  H    0.398169
    25  H    0.208480
    26  H    0.226836
    27  H    0.216279
    28  H    0.211559
    29  H    0.167220
    30  H    0.177785
    31  H    0.173086
    32  H    0.158325
    33  H    0.143477
    34  H    0.148908
    35  H    0.148021
    36  H    0.149157
    37  H    0.147798
    38  H    0.183403
    39  H    0.169441
    40  H    0.169600
    41  H    0.170303
    42  H    0.185728
 Sum of Mulliken charges =   0.00000

 Dipole moment (field-independent basis, Debye):
    X=             -2.9394    Y=              3.6648    Z=             -3.0348  Tot=              5.5929
 Quadrupole moment (field-independent basis, Debye-Ang):
   XX=           -147.3165   YY=           -149.7927   ZZ=           -156.4899
   XY=             14.4969   XZ=             -2.3139   YZ=            -28.4394

 Normal termination of Gaussian 09 at Sat Aug  8 02:35:02 2020.
