 Gaussian 09, Revision D.01,

 -----------------
 #p b3lyp/6-31G(d)
 -----------------

 -----------------
 SM36.n.12.pdb.xyz
 -----------------
 Symbolic Z-matrix:
 Charge =  0 Multiplicity = 1

 SCF Done:  E(RB3LYP) =  -1735.90995477     A.U. after   16 cycles
 Normal termination of Gaussian 09 at Sat Aug  8 02:29:04 2020.
 Gaussian 09:  AM64L-G09RevD.01 24-Apr-2013

 ----------------------------------------------------------------------
 #p b3lyp/6-31G(d) scrf=(iefpcm,read,solvent=Water) geom=allcheck guess
 =read
 ----------------------------------------------------------------------

 Structure from the checkpoint file:  "SM36.n.12.pdb.xyz.mst.n.w.chk"
 -----------------
 SM36.n.12.pdb.xyz
 -----------------
 Charge =  0 Multiplicity = 1

                         Standard orientation:
 ---------------------------------------------------------------------
 Center     Atomic      Atomic             Coordinates (Angstroms)
 Number     Number       Type             X           Y           Z
 ---------------------------------------------------------------------
      1          8           0       -1.236569   -1.102182   -1.869324
      2         16           0       -1.626294   -1.447851   -0.495000
      3          7           0       -0.433441   -0.879989    0.525691
      4          6           0        0.229845    0.435325    0.468430
      5          6           0       -0.647232    1.715892    0.467583
      6         16           0        0.508159    2.574723   -0.724586
      7          8           0        1.603933    3.302652    0.053509
      8          6           0        0.937456    0.763363   -0.868281
      9          6           0        1.188747    0.492692    1.674458
     10          6           0        2.197537   -0.661022    1.825974
     11          6           0        3.354512   -0.678423    0.847018
     12          6           0        4.319339    0.339495    0.848057
     13          6           0        5.390777    0.312022   -0.045028
     14          6           0        5.521203   -0.740538   -0.955164
     15          6           0        4.572472   -1.763535   -0.961213
     16          6           0        3.500227   -1.730626   -0.066456
     17          6           0       -3.175113   -0.610091   -0.151996
     18          6           0       -3.656899    0.316432   -1.077921
     19          6           0       -4.860243    0.971239   -0.813328
     20          6           0       -5.562501    0.697762    0.362345
     21          6           0       -5.069555   -0.238158    1.278162
     22          6           0       -3.870148   -0.901891    1.025137
     23          8           0       -1.798926   -2.856800   -0.111940
     24          1           0       -0.622778   -1.201003    1.475391
     25          1           0       -0.760378    2.242843    1.416715
     26          1           0       -1.613351    1.609340   -0.025822
     27          1           0        2.006816    0.575669   -0.929876
     28          1           0        0.413510    0.362254   -1.735620
     29          1           0        0.567011    0.523650    2.576926
     30          1           0        1.706479    1.454288    1.620262
     31          1           0        1.667684   -1.615016    1.762874
     32          1           0        2.598434   -0.592391    2.842748
     33          1           0        4.232646    1.160996    1.555095
     34          1           0        6.127085    1.109095   -0.027398
     35          1           0        6.355551   -0.763281   -1.648746
     36          1           0        4.665512   -2.588846   -1.661165
     37          1           0        2.763000   -2.528189   -0.073367
     38          1           0       -3.101257    0.502363   -1.988438
     39          1           0       -5.247648    1.689793   -1.527625
     40          1           0       -6.496642    1.209298    0.565639
     41          1           0       -5.620423   -0.453943    2.186975
     42          1           0       -3.487044   -1.635948    1.724363
 ---------------------------------------------------------------------

 SCF Done:  E(RB3LYP) =  -1735.93415222     A.U. after   11 cycles

 The electronic state is 1-A.
 Alpha  occ. eigenvalues --  -89.12908 -88.98646 -19.15978 -19.15658 -19.11885
 Alpha  occ. eigenvalues --  -14.37741 -10.26431 -10.23567 -10.21720 -10.21674
 Alpha  occ. eigenvalues --  -10.21535 -10.21073 -10.20926 -10.20844 -10.20811
 Alpha  occ. eigenvalues --  -10.19680 -10.19525 -10.19020 -10.18985 -10.18985
 Alpha  occ. eigenvalues --  -10.18851 -10.18770 -10.18744  -8.15364  -8.03468
 Alpha  occ. eigenvalues --   -6.11857  -6.11811  -6.11661  -5.99888  -5.99681
 Alpha  occ. eigenvalues --   -5.99247  -1.12572  -1.01591  -1.00671  -0.94331
 Alpha  occ. eigenvalues --   -0.87868  -0.85706  -0.84599  -0.79051  -0.78105
 Alpha  occ. eigenvalues --   -0.76673  -0.74330  -0.73962  -0.69934  -0.69174
 Alpha  occ. eigenvalues --   -0.66384  -0.62789  -0.62410  -0.61031  -0.60297
 Alpha  occ. eigenvalues --   -0.57850  -0.56798  -0.55667  -0.52369  -0.51862
 Alpha  occ. eigenvalues --   -0.50578  -0.49522  -0.47773  -0.47650  -0.46364
 Alpha  occ. eigenvalues --   -0.45927  -0.45772  -0.45302  -0.44975  -0.44127
 Alpha  occ. eigenvalues --   -0.43641  -0.42512  -0.41618  -0.41508  -0.40302
 Alpha  occ. eigenvalues --   -0.39050  -0.38670  -0.38610  -0.38138  -0.37290
 Alpha  occ. eigenvalues --   -0.36538  -0.36419  -0.35982  -0.35288  -0.34041
 Alpha  occ. eigenvalues --   -0.33381  -0.33269  -0.32956  -0.31865  -0.31430
 Alpha  occ. eigenvalues --   -0.29744  -0.27196  -0.26780  -0.26383  -0.25194
 Alpha  occ. eigenvalues --   -0.24489  -0.23312
 Alpha virt. eigenvalues --   -0.04228  -0.02212  -0.00580  -0.00185   0.00899
 Alpha virt. eigenvalues --    0.03081   0.05231   0.06403   0.06606   0.08412
 Alpha virt. eigenvalues --    0.09032   0.10026   0.10704   0.11631   0.12142

 Mulliken charges:
               1
     1  O   -0.576379
     2  S    1.181647
     3  N   -0.711698
     4  C    0.226742
     5  C   -0.486166
     6  S    0.743952
     7  O   -0.687547
     8  C   -0.484269
     9  C   -0.324958
    10  C   -0.349669
    11  C    0.152175
    12  C   -0.190720
    13  C   -0.148633
    14  C   -0.152458
    15  C   -0.146433
    16  C   -0.202153
    17  C   -0.146605
    18  C   -0.157558
    19  C   -0.133570
    20  C   -0.127142
    21  C   -0.136587
    22  C   -0.144572
    23  O   -0.571936
    24  H    0.404196
    25  H    0.214603
    26  H    0.205577
    27  H    0.218765
    28  H    0.229395
    29  H    0.163404
    30  H    0.185216
    31  H    0.162290
    32  H    0.166448
    33  H    0.145215
    34  H    0.148709
    35  H    0.147967
    36  H    0.148458
    37  H    0.144690
    38  H    0.188778
    39  H    0.171921
    40  H    0.170789
    41  H    0.172148
    42  H    0.185964
 Sum of Mulliken charges =   0.00000

 Dipole moment (field-independent basis, Debye):
    X=             -5.6487    Y=              1.2114    Z=              4.2758  Tot=              7.1873
 Quadrupole moment (field-independent basis, Debye-Ang):
   XX=           -123.0235   YY=           -174.0547   ZZ=           -139.4354
   XY=            -20.4124   XZ=            -10.2090   YZ=             -6.4675

 Normal termination of Gaussian 09 at Sat Aug  8 02:35:29 2020.
