 Gaussian 09, Revision D.01,

 -----------------
 #p b3lyp/6-31G(d)
 -----------------

 ----------------
 SM36.n.4.pdb.xyz
 ----------------
 Symbolic Z-matrix:
 Charge =  0 Multiplicity = 1

 SCF Done:  E(RB3LYP) =  -1735.91150679     A.U. after   16 cycles
 Normal termination of Gaussian 09 at Sat Aug  8 05:17:32 2020.
 Gaussian 09:  AM64L-G09RevD.01 24-Apr-2013

 ----------------------------------------------------------------------
 #p b3lyp/6-31G(d) scrf=(iefpcm,read,solvent=n-Octanol) geom=allcheck g
 uess=read
 ----------------------------------------------------------------------

 Structure from the checkpoint file:  "SM36.n.4.pdb.xyz.mst.n.o.chk"
 ----------------
 SM36.n.4.pdb.xyz
 ----------------
 Charge =  0 Multiplicity = 1

                         Standard orientation:
 ---------------------------------------------------------------------
 Center     Atomic      Atomic             Coordinates (Angstroms)
 Number     Number       Type             X           Y           Z
 ---------------------------------------------------------------------
      1          8           0        3.710025   -1.529543   -0.437364
      2         16           0        2.419382   -0.844521   -0.600625
      3          7           0        1.410728   -1.582483    0.533667
      4          6           0       -0.037529   -1.728646    0.294842
      5          6           0       -0.638756   -2.581345    1.439524
      6         16           0       -1.428095   -3.815306    0.271138
      7          8           0       -2.910934   -3.533667    0.124409
      8          6           0       -0.425435   -2.704972   -0.850332
      9          6           0       -0.668521   -0.333126    0.177441
     10          6           0       -2.196241   -0.301838   -0.009105
     11          6           0       -2.716567    1.116911   -0.078846
     12          6           0       -2.767540    1.804408   -1.297748
     13          6           0       -3.222139    3.121678   -1.359946
     14          6           0       -3.636323    3.774644   -0.198276
     15          6           0       -3.594177    3.100425    1.022817
     16          6           0       -3.138678    1.783403    1.078921
     17          6           0        2.584697    0.839100   -0.022089
     18          6           0        2.986439    1.084089    1.291097
     19          6           0        3.179714    2.401109    1.699951
     20          6           0        2.979291    3.451806    0.799384
     21          6           0        2.585075    3.190657   -0.513349
     22          6           0        2.385940    1.874656   -0.934188
     23          8           0        1.775743   -0.795470   -1.922136
     24          1           0        1.869527   -2.450924    0.807131
     25          1           0       -1.388288   -2.087398    2.057734
     26          1           0        0.096443   -3.075274    2.077803
     27          1           0       -1.040458   -2.294114   -1.651651
     28          1           0        0.411192   -3.257326   -1.277199
     29          1           0       -0.200836    0.176558   -0.669938
     30          1           0       -0.398360    0.223688    1.080995
     31          1           0       -2.685644   -0.834161    0.810837
     32          1           0       -2.468735   -0.839572   -0.921746
     33          1           0       -2.451571    1.300136   -2.207578
     34          1           0       -3.256595    3.635626   -2.315975
     35          1           0       -3.994353    4.798399   -0.245209
     36          1           0       -3.920649    3.597023    1.930454
     37          1           0       -3.115060    1.261157    2.031533
     38          1           0        3.132626    0.261559    1.980753
     39          1           0        3.484614    2.606765    2.719868
     40          1           0        3.131188    4.475751    1.124691
     41          1           0        2.429991    4.006406   -1.210997
     42          1           0        2.075124    1.641988   -1.945249
 ---------------------------------------------------------------------

 SCF Done:  E(RB3LYP) =  -1735.94372663     A.U. after   11 cycles

 The electronic state is 1-A.
 Alpha  occ. eigenvalues --  -89.12368 -88.98788 -19.15527 -19.15291 -19.11896
 Alpha  occ. eigenvalues --  -14.37665 -10.26651 -10.23385 -10.22364 -10.21763
 Alpha  occ. eigenvalues --  -10.21659 -10.21522 -10.21038 -10.20919 -10.20873
 Alpha  occ. eigenvalues --  -10.19691 -10.19567 -10.19086 -10.18854 -10.18843
 Alpha  occ. eigenvalues --  -10.18707 -10.18675 -10.18665  -8.14894  -8.03613
 Alpha  occ. eigenvalues --   -6.11399  -6.11324  -6.11175  -6.00026  -5.99846
 Alpha  occ. eigenvalues --   -5.99381  -1.12127  -1.01102  -1.01014  -0.94552
 Alpha  occ. eigenvalues --   -0.87900  -0.85612  -0.84391  -0.79099  -0.78236
 Alpha  occ. eigenvalues --   -0.76703  -0.74205  -0.73836  -0.70944  -0.69298
 Alpha  occ. eigenvalues --   -0.66728  -0.62849  -0.62395  -0.60349  -0.59946
 Alpha  occ. eigenvalues --   -0.58370  -0.56427  -0.54971  -0.52573  -0.52052
 Alpha  occ. eigenvalues --   -0.50642  -0.49304  -0.48581  -0.47811  -0.47322
 Alpha  occ. eigenvalues --   -0.46120  -0.45282  -0.45240  -0.44720  -0.44197
 Alpha  occ. eigenvalues --   -0.43945  -0.42275  -0.41764  -0.41312  -0.40429
 Alpha  occ. eigenvalues --   -0.39755  -0.39083  -0.38461  -0.38265  -0.37802
 Alpha  occ. eigenvalues --   -0.36564  -0.35881  -0.35399  -0.34910  -0.34557
 Alpha  occ. eigenvalues --   -0.33494  -0.33261  -0.32880  -0.31983  -0.31179
 Alpha  occ. eigenvalues --   -0.29169  -0.27148  -0.27015  -0.26375  -0.24902
 Alpha  occ. eigenvalues --   -0.24289  -0.23197
 Alpha virt. eigenvalues --   -0.04049  -0.02074  -0.00031   0.00024   0.00540
 Alpha virt. eigenvalues --    0.02050   0.04774   0.05631   0.06486   0.08189
 Alpha virt. eigenvalues --    0.08626   0.09629   0.10410   0.11099   0.11252

 Mulliken charges:
               1
     1  O   -0.552402
     2  S    1.218472
     3  N   -0.744257
     4  C    0.243025
     5  C   -0.510733
     6  S    0.757362
     7  O   -0.647906
     8  C   -0.488801
     9  C   -0.294950
    10  C   -0.377851
    11  C    0.168283
    12  C   -0.185270
    13  C   -0.136605
    14  C   -0.140350
    15  C   -0.137399
    16  C   -0.186611
    17  C   -0.142302
    18  C   -0.130635
    19  C   -0.135164
    20  C   -0.122368
    21  C   -0.129814
    22  C   -0.143529
    23  O   -0.566614
    24  H    0.374150
    25  H    0.216139
    26  H    0.202456
    27  H    0.213013
    28  H    0.205491
    29  H    0.176996
    30  H    0.163470
    31  H    0.162094
    32  H    0.160761
    33  H    0.132087
    34  H    0.137580
    35  H    0.136606
    36  H    0.137411
    37  H    0.130771
    38  H    0.173241
    39  H    0.161135
    40  H    0.160103
    41  H    0.160866
    42  H    0.182048
 Sum of Mulliken charges =   0.00000

 Dipole moment (field-independent basis, Debye):
    X=              1.9692    Y=              4.0511    Z=              3.8589  Tot=              5.9312
 Quadrupole moment (field-independent basis, Debye-Ang):
   XX=           -176.0066   YY=           -136.9070   ZZ=           -138.6631
   XY=             -4.3193   XZ=              8.9272   YZ=             -5.0271

 Normal termination of Gaussian 09 at Sat Aug  8 05:23:19 2020.
