 Gaussian 09, Revision D.01,

 -----------------
 #p b3lyp/6-31G(d)
 -----------------

 ----------------
 SM36.n.6.pdb.xyz
 ----------------
 Symbolic Z-matrix:
 Charge =  0 Multiplicity = 1

 SCF Done:  E(RB3LYP) =  -1735.91342664     A.U. after   16 cycles
 Normal termination of Gaussian 09 at Sat Aug  8 05:31:43 2020.
 Gaussian 09:  AM64L-G09RevD.01 24-Apr-2013

 ----------------------------------------------------------------------
 #p b3lyp/6-31G(d) scrf=(iefpcm,read,solvent=n-Octanol) geom=allcheck g
 uess=read
 ----------------------------------------------------------------------

 Structure from the checkpoint file:  "SM36.n.6.pdb.xyz.mst.n.o.chk"
 ----------------
 SM36.n.6.pdb.xyz
 ----------------
 Charge =  0 Multiplicity = 1

                         Standard orientation:
 ---------------------------------------------------------------------
 Center     Atomic      Atomic             Coordinates (Angstroms)
 Number     Number       Type             X           Y           Z
 ---------------------------------------------------------------------
      1          8           0       -1.546880   -0.074195   -2.101762
      2         16           0       -1.701758   -1.005255   -0.971828
      3          7           0       -0.508027   -0.760716    0.180131
      4          6           0        0.273259    0.480694    0.284372
      5          6           0       -0.565128    1.773453    0.280893
      6         16           0        0.765865    2.699389   -0.662072
      7          8           0        1.773730    3.288974    0.312962
      8          6           0        1.136966    0.885941   -0.938208
      9          6           0        1.082107    0.410802    1.591017
     10          6           0        2.015277   -0.796556    1.781674
     11          6           0        3.256412   -0.847404    0.911611
     12          6           0        4.150793    0.231752    0.858041
     13          6           0        5.306206    0.161785    0.081059
     14          6           0        5.591683   -0.990685   -0.655775
     15          6           0        4.711609   -2.070704   -0.608415
     16          6           0        3.554580   -1.995790    0.170275
     17          6           0       -3.215516   -0.547341   -0.130017
     18          6           0       -3.499593   -1.067650    1.134751
     19          6           0       -4.716085   -0.752916    1.733485
     20          6           0       -5.635329    0.065951    1.068804
     21          6           0       -5.340682    0.574326   -0.197650
     22          6           0       -4.124397    0.267021   -0.807555
     23          8           0       -1.701051   -2.454868   -1.210765
     24          1           0        0.047959   -1.610881    0.239329
     25          1           0       -0.808046    2.213632    1.248500
     26          1           0       -1.441587    1.728819   -0.365309
     27          1           0        2.198876    0.650529   -0.912484
     28          1           0        0.672201    0.598153   -1.881055
     29          1           0        0.354960    0.413743    2.410024
     30          1           0        1.649350    1.342737    1.658310
     31          1           0        1.455727   -1.730253    1.658277
     32          1           0        2.323495   -0.786330    2.833963
     33          1           0        3.932044    1.139006    1.413905
     34          1           0        5.985121    1.008537    0.049346
     35          1           0        6.490165   -1.043465   -1.260255
     36          1           0        4.920951   -2.971733   -1.177153
     37          1           0        2.872941   -2.841871    0.206246
     38          1           0       -2.776263   -1.692393    1.643180
     39          1           0       -4.946497   -1.143774    2.718089
     40          1           0       -6.580382    0.308385    1.541909
     41          1           0       -6.053576    1.209997   -0.710285
     42          1           0       -3.866333    0.650681   -1.786715
 ---------------------------------------------------------------------

 SCF Done:  E(RB3LYP) =  -1735.94253349     A.U. after   11 cycles

 The electronic state is 1-A.
 Alpha  occ. eigenvalues --  -89.12805 -88.98699 -19.15845 -19.15624 -19.11720
 Alpha  occ. eigenvalues --  -14.37889 -10.26533 -10.23633 -10.22018 -10.21851
 Alpha  occ. eigenvalues --  -10.21725 -10.21215 -10.21117 -10.21087 -10.21048
 Alpha  occ. eigenvalues --  -10.20095 -10.20048 -10.19759 -10.19254 -10.19247
 Alpha  occ. eigenvalues --  -10.19147 -10.19060 -10.18960  -8.15297  -8.03508
 Alpha  occ. eigenvalues --   -6.11810  -6.11731  -6.11577  -5.99920  -5.99729
 Alpha  occ. eigenvalues --   -5.99290  -1.12493  -1.01465  -1.00792  -0.94739
 Alpha  occ. eigenvalues --   -0.88056  -0.86039  -0.84776  -0.79553  -0.78398
 Alpha  occ. eigenvalues --   -0.76893  -0.74637  -0.74176  -0.70270  -0.69462
 Alpha  occ. eigenvalues --   -0.66948  -0.63072  -0.62662  -0.60995  -0.60496
 Alpha  occ. eigenvalues --   -0.58229  -0.56954  -0.55262  -0.53131  -0.52150
 Alpha  occ. eigenvalues --   -0.51061  -0.49399  -0.48073  -0.47637  -0.46988
 Alpha  occ. eigenvalues --   -0.46338  -0.45975  -0.45576  -0.44999  -0.44395
 Alpha  occ. eigenvalues --   -0.43675  -0.43008  -0.41904  -0.41782  -0.40838
 Alpha  occ. eigenvalues --   -0.39377  -0.39043  -0.38536  -0.38393  -0.37295
 Alpha  occ. eigenvalues --   -0.37051  -0.36704  -0.36113  -0.35765  -0.34083
 Alpha  occ. eigenvalues --   -0.33820  -0.33496  -0.33207  -0.32089  -0.31565
 Alpha  occ. eigenvalues --   -0.29226  -0.27351  -0.26894  -0.26364  -0.25361
 Alpha  occ. eigenvalues --   -0.24604  -0.23184
 Alpha virt. eigenvalues --   -0.04284  -0.02268  -0.00855  -0.00352   0.00551
 Alpha virt. eigenvalues --    0.03192   0.04518   0.06172   0.06568   0.07522
 Alpha virt. eigenvalues --    0.08928   0.09346   0.10200   0.10678   0.11575

 Mulliken charges:
               1
     1  O   -0.570887
     2  S    1.215031
     3  N   -0.739675
     4  C    0.210879
     5  C   -0.488466
     6  S    0.743806
     7  O   -0.650425
     8  C   -0.490317
     9  C   -0.294150
    10  C   -0.379963
    11  C    0.166874
    12  C   -0.192978
    13  C   -0.137015
    14  C   -0.140905
    15  C   -0.133481
    16  C   -0.201752
    17  C   -0.148169
    18  C   -0.129786
    19  C   -0.133736
    20  C   -0.123469
    21  C   -0.130694
    22  C   -0.146286
    23  O   -0.543583
    24  H    0.365322
    25  H    0.204139
    26  H    0.210769
    27  H    0.217093
    28  H    0.220002
    29  H    0.156250
    30  H    0.193028
    31  H    0.144342
    32  H    0.175084
    33  H    0.148315
    34  H    0.143277
    35  H    0.141509
    36  H    0.142499
    37  H    0.132337
    38  H    0.173623
    39  H    0.162884
    40  H    0.161946
    41  H    0.162938
    42  H    0.183790
 Sum of Mulliken charges =   0.00000

 Dipole moment (field-independent basis, Debye):
    X=             -3.3913    Y=             -1.1043    Z=              3.5385  Tot=              5.0241
 Quadrupole moment (field-independent basis, Debye-Ang):
   XX=           -123.0631   YY=           -164.4948   ZZ=           -147.2437
   XY=            -17.0577   XZ=            -13.7493   YZ=             -7.9184

 Normal termination of Gaussian 09 at Sat Aug  8 05:37:25 2020.
