 Gaussian 09, Revision D.01,

 -----------------
 #p b3lyp/6-31G(d)
 -----------------

 ----------------
 SM36.n.5.pdb.xyz
 ----------------
 Symbolic Z-matrix:
 Charge =  0 Multiplicity = 1

 SCF Done:  E(RB3LYP) =  -1735.90941780     A.U. after   16 cycles
 Normal termination of Gaussian 09 at Sat Aug  8 05:18:13 2020.
 Gaussian 09:  AM64L-G09RevD.01 24-Apr-2013

 ----------------------------------------------------------------------
 #p b3lyp/6-31G(d) scrf=(iefpcm,read,solvent=n-Octanol) geom=allcheck g
 uess=read
 ----------------------------------------------------------------------

 Structure from the checkpoint file:  "SM36.n.5.pdb.xyz.mst.n.o.chk"
 ----------------
 SM36.n.5.pdb.xyz
 ----------------
 Charge =  0 Multiplicity = 1

                         Standard orientation:
 ---------------------------------------------------------------------
 Center     Atomic      Atomic             Coordinates (Angstroms)
 Number     Number       Type             X           Y           Z
 ---------------------------------------------------------------------
      1          8           0       -3.018079   -0.314105    1.316580
      2         16           0       -2.753915   -0.771729   -0.051905
      3          7           0       -2.053763    0.514934   -0.867244
      4          6           0       -0.952648    1.371778   -0.370228
      5          6           0       -1.317376    2.075599    0.961001
      6         16           0       -1.199678    3.793419    0.233149
      7          8           0        0.111210    4.449709    0.622864
      8          6           0       -0.947821    2.660237   -1.236173
      9          6           0        0.399061    0.635689   -0.363968
     10          6           0        1.616087    1.464022    0.087961
     11          6           0        2.894105    0.659511    0.013735
     12          6           0        3.667219    0.648388   -1.153796
     13          6           0        4.832880   -0.114270   -1.235910
     14          6           0        5.245279   -0.881279   -0.145452
     15          6           0        4.485027   -0.876764    1.025524
     16          6           0        3.320749   -0.111943    1.101688
     17          6           0       -1.605231   -2.141869    0.064070
     18          6           0       -0.898121   -2.334613    1.251610
     19          6           0        0.004325   -3.392379    1.335299
     20          6           0        0.193368   -4.239998    0.241015
     21          6           0       -0.528165   -4.040322   -0.939461
     22          6           0       -1.436261   -2.986475   -1.033954
     23          8           0       -3.842710   -1.201057   -0.935506
     24          1           0       -1.977863    0.293098   -1.859047
     25          1           0       -0.599482    1.955712    1.772353
     26          1           0       -2.324125    1.863499    1.312973
     27          1           0       -0.010429    2.888543   -1.745090
     28          1           0       -1.789729    2.736844   -1.925885
     29          1           0        0.579305    0.259331   -1.379099
     30          1           0        0.313772   -0.244099    0.281070
     31          1           0        1.460734    1.816153    1.112006
     32          1           0        1.707522    2.362322   -0.529427
     33          1           0        3.356195    1.248925   -2.004572
     34          1           0        5.419550   -0.105225   -2.149066
     35          1           0        6.152572   -1.472233   -0.204900
     36          1           0        4.801857   -1.464338    1.881521
     37          1           0        2.737848   -0.107761    2.019183
     38          1           0       -1.076998   -1.675228    2.092300
     39          1           0        0.555738   -3.557167    2.254802
     40          1           0        0.897035   -5.061398    0.309605
     41          1           0       -0.388604   -4.706554   -1.783209
     42          1           0       -2.019286   -2.830249   -1.934006
 ---------------------------------------------------------------------

 SCF Done:  E(RB3LYP) =  -1735.94258039     A.U. after   11 cycles

 The electronic state is 1-A.
 Alpha  occ. eigenvalues --  -89.12509 -88.98740 -19.15518 -19.15241 -19.11844
 Alpha  occ. eigenvalues --  -14.37856 -10.26819 -10.23490 -10.22187 -10.21820
 Alpha  occ. eigenvalues --  -10.21674 -10.21601 -10.21214 -10.21111 -10.21089
 Alpha  occ. eigenvalues --  -10.19950 -10.19710 -10.19296 -10.18982 -10.18973
 Alpha  occ. eigenvalues --  -10.18822 -10.18814 -10.18807  -8.14965  -8.03553
 Alpha  occ. eigenvalues --   -6.11463  -6.11403  -6.11270  -5.99966  -5.99788
 Alpha  occ. eigenvalues --   -5.99321  -1.12259  -1.01324  -1.00930  -0.94426
 Alpha  occ. eigenvalues --   -0.88035  -0.85747  -0.84447  -0.79211  -0.78242
 Alpha  occ. eigenvalues --   -0.76905  -0.74325  -0.73867  -0.70926  -0.69307
 Alpha  occ. eigenvalues --   -0.66388  -0.62859  -0.62711  -0.60624  -0.60487
 Alpha  occ. eigenvalues --   -0.58281  -0.56644  -0.56009  -0.52889  -0.51975
 Alpha  occ. eigenvalues --   -0.50681  -0.49349  -0.48270  -0.48029  -0.47614
 Alpha  occ. eigenvalues --   -0.46198  -0.45408  -0.45224  -0.44544  -0.44384
 Alpha  occ. eigenvalues --   -0.43492  -0.42128  -0.41880  -0.41606  -0.40674
 Alpha  occ. eigenvalues --   -0.40499  -0.39279  -0.38620  -0.37973  -0.37606
 Alpha  occ. eigenvalues --   -0.36703  -0.35735  -0.35206  -0.35053  -0.34337
 Alpha  occ. eigenvalues --   -0.33982  -0.33396  -0.32858  -0.31544  -0.31373
 Alpha  occ. eigenvalues --   -0.29859  -0.27292  -0.26930  -0.26659  -0.25022
 Alpha  occ. eigenvalues --   -0.24389  -0.22996
 Alpha virt. eigenvalues --   -0.04356  -0.02364  -0.00161  -0.00111   0.00434
 Alpha virt. eigenvalues --    0.02170   0.04356   0.05584   0.07459   0.08504
 Alpha virt. eigenvalues --    0.08726   0.09487   0.10705   0.10874   0.11076

 Mulliken charges:
               1
     1  O   -0.561689
     2  S    1.181890
     3  N   -0.710525
     4  C    0.233586
     5  C   -0.501223
     6  S    0.763418
     7  O   -0.649428
     8  C   -0.507087
     9  C   -0.285757
    10  C   -0.375032
    11  C    0.169779
    12  C   -0.187674
    13  C   -0.138337
    14  C   -0.140160
    15  C   -0.136150
    16  C   -0.184764
    17  C   -0.138240
    18  C   -0.156827
    19  C   -0.126118
    20  C   -0.121968
    21  C   -0.130778
    22  C   -0.144548
    23  O   -0.550681
    24  H    0.378167
    25  H    0.206331
    26  H    0.232724
    27  H    0.211524
    28  H    0.208741
    29  H    0.150969
    30  H    0.163615
    31  H    0.160164
    32  H    0.162705
    33  H    0.131274
    34  H    0.138446
    35  H    0.137609
    36  H    0.137853
    37  H    0.130342
    38  H    0.182949
    39  H    0.161942
    40  H    0.161614
    41  H    0.162784
    42  H    0.178558
 Sum of Mulliken charges =   0.00000

 Dipole moment (field-independent basis, Debye):
    X=              3.9741    Y=             -5.1026    Z=             -3.1097  Tot=              7.1763
 Quadrupole moment (field-independent basis, Debye-Ang):
   XX=           -170.1298   YY=           -156.3623   ZZ=           -135.5447
   XY=            -16.9330   XZ=              2.5772   YZ=             -8.6483

 Normal termination of Gaussian 09 at Sat Aug  8 05:24:02 2020.
