 Gaussian 09, Revision D.01,

 -----------------
 #p b3lyp/6-31G(d)
 -----------------

 ----------------
 SM36.n.8.pdb.xyz
 ----------------
 Symbolic Z-matrix:
 Charge =  0 Multiplicity = 1

 SCF Done:  E(RB3LYP) =  -1735.91426623     A.U. after   16 cycles
 Normal termination of Gaussian 09 at Sat Aug  8 05:46:24 2020.
 Gaussian 09:  AM64L-G09RevD.01 24-Apr-2013

 ----------------------------------------------------------------------
 #p b3lyp/6-31G(d) scrf=(iefpcm,read,solvent=n-Octanol) geom=allcheck g
 uess=read
 ----------------------------------------------------------------------

 Structure from the checkpoint file:  "SM36.n.8.pdb.xyz.mst.n.o.chk"
 ----------------
 SM36.n.8.pdb.xyz
 ----------------
 Charge =  0 Multiplicity = 1

                         Standard orientation:
 ---------------------------------------------------------------------
 Center     Atomic      Atomic             Coordinates (Angstroms)
 Number     Number       Type             X           Y           Z
 ---------------------------------------------------------------------
      1          8           0        3.163565   -1.541463    1.590612
      2         16           0        2.248971   -1.231276    0.483955
      3          7           0        0.729230   -1.147677    1.194150
      4          6           0       -0.513785   -1.536317    0.507603
      5          6           0       -0.630158   -3.001178    0.012402
      6         16           0       -1.549084   -2.470946   -1.527420
      7          8           0       -3.040512   -2.412574   -1.236601
      8          6           0       -0.716198   -0.915734   -0.895356
      9          6           0       -1.680633   -1.234129    1.466602
     10          6           0       -1.771656    0.202198    2.012614
     11          6           0       -2.273437    1.255415    1.046514
     12          6           0       -3.576163    1.204189    0.530330
     13          6           0       -4.039079    2.187327   -0.344177
     14          6           0       -3.207676    3.245601   -0.716089
     15          6           0       -1.911414    3.312889   -0.204514
     16          6           0       -1.451348    2.325540    0.670382
     17          6           0        2.572311    0.437884   -0.072420
     18          6           0        2.590598    1.480665    0.857247
     19          6           0        2.897456    2.767034    0.419822
     20          6           0        3.187832    2.998023   -0.929048
     21          6           0        3.176516    1.944895   -1.845102
     22          6           0        2.871069    0.650952   -1.417608
     23          8           0        2.217731   -2.084714   -0.714308
     24          1           0        0.803405   -1.506662    2.145566
     25          1           0       -1.196989   -3.697655    0.631169
     26          1           0        0.326530   -3.422930   -0.296006
     27          1           0       -1.332625   -0.022392   -0.971114
     28          1           0        0.214601   -0.806909   -1.452325
     29          1           0       -1.584743   -1.920665    2.317507
     30          1           0       -2.599418   -1.518695    0.944683
     31          1           0       -0.788988    0.500431    2.384763
     32          1           0       -2.440437    0.171355    2.880001
     33          1           0       -4.234120    0.387845    0.814747
     34          1           0       -5.051580    2.128695   -0.732337
     35          1           0       -3.567907    4.010760   -1.395960
     36          1           0       -1.256944    4.131438   -0.485470
     37          1           0       -0.440597    2.377341    1.064310
     38          1           0        2.369432    1.288520    1.900358
     39          1           0        2.912628    3.586100    1.129502
     40          1           0        3.425181    4.002265   -1.263666
     41          1           0        3.407208    2.125366   -2.888226
     42          1           0        2.860885   -0.186431   -2.103950
 ---------------------------------------------------------------------

 SCF Done:  E(RB3LYP) =  -1735.94514883     A.U. after   11 cycles

 The electronic state is 1-A.
 Alpha  occ. eigenvalues --  -89.12700 -88.98500 -19.15819 -19.15532 -19.11476
 Alpha  occ. eigenvalues --  -14.37608 -10.26387 -10.23596 -10.21910 -10.21733
 Alpha  occ. eigenvalues --  -10.21517 -10.21267 -10.21230 -10.21145 -10.21064
 Alpha  occ. eigenvalues --  -10.19645 -10.19643 -10.19135 -10.19003 -10.18992
 Alpha  occ. eigenvalues --  -10.18849 -10.18746 -10.18732  -8.15195  -8.03310
 Alpha  occ. eigenvalues --   -6.11703  -6.11633  -6.11474  -5.99720  -5.99532
 Alpha  occ. eigenvalues --   -5.99092  -1.12420  -1.01457  -1.00587  -0.94324
 Alpha  occ. eigenvalues --   -0.88054  -0.85677  -0.84462  -0.79085  -0.78382
 Alpha  occ. eigenvalues --   -0.76902  -0.74311  -0.73939  -0.70044  -0.69184
 Alpha  occ. eigenvalues --   -0.66588  -0.62954  -0.62502  -0.60773  -0.60330
 Alpha  occ. eigenvalues --   -0.57886  -0.56883  -0.55162  -0.52513  -0.51982
 Alpha  occ. eigenvalues --   -0.50659  -0.49413  -0.48348  -0.47731  -0.46441
 Alpha  occ. eigenvalues --   -0.46267  -0.45722  -0.45191  -0.44769  -0.44423
 Alpha  occ. eigenvalues --   -0.43469  -0.42516  -0.41855  -0.41618  -0.40300
 Alpha  occ. eigenvalues --   -0.39174  -0.38781  -0.38562  -0.38200  -0.37206
 Alpha  occ. eigenvalues --   -0.36751  -0.36652  -0.36260  -0.34873  -0.34188
 Alpha  occ. eigenvalues --   -0.33445  -0.33154  -0.32976  -0.31891  -0.31482
 Alpha  occ. eigenvalues --   -0.29297  -0.27360  -0.26789  -0.26087  -0.25056
 Alpha  occ. eigenvalues --   -0.24343  -0.22930
 Alpha virt. eigenvalues --   -0.04316  -0.02320  -0.00524  -0.00101   0.00916
 Alpha virt. eigenvalues --    0.03496   0.04909   0.06093   0.06725   0.08179
 Alpha virt. eigenvalues --    0.09129   0.09406   0.10035   0.11301   0.11473

 Mulliken charges:
               1
     1  O   -0.552272
     2  S    1.223014
     3  N   -0.738095
     4  C    0.219455
     5  C   -0.481804
     6  S    0.741440
     7  O   -0.650678
     8  C   -0.491560
     9  C   -0.316862
    10  C   -0.350513
    11  C    0.153092
    12  C   -0.179548
    13  C   -0.137987
    14  C   -0.142447
    15  C   -0.136482
    16  C   -0.196941
    17  C   -0.141368
    18  C   -0.134888
    19  C   -0.134750
    20  C   -0.122578
    21  C   -0.129425
    22  C   -0.147896
    23  O   -0.571576
    24  H    0.379367
    25  H    0.198499
    26  H    0.220706
    27  H    0.221295
    28  H    0.204287
    29  H    0.149081
    30  H    0.192796
    31  H    0.158337
    32  H    0.160234
    33  H    0.138483
    34  H    0.140182
    35  H    0.138581
    36  H    0.137400
    37  H    0.134165
    38  H    0.174974
    39  H    0.163441
    40  H    0.161783
    41  H    0.163061
    42  H    0.183998
 Sum of Mulliken charges =   0.00000

 Dipole moment (field-independent basis, Debye):
    X=              1.4432    Y=              5.0021    Z=              1.2965  Tot=              5.3651
 Quadrupole moment (field-independent basis, Debye-Ang):
   XX=           -167.8946   YY=           -141.8688   ZZ=           -141.1963
   XY=              9.2878   XZ=            -12.4342   YZ=            -10.2612

 Normal termination of Gaussian 09 at Sat Aug  8 05:52:25 2020.
