 Gaussian 09, Revision D.01,

 -----------------
 #p b3lyp/6-31G(d)
 -----------------

 ----------------
 SM36.n.7.pdb.xyz
 ----------------
 Symbolic Z-matrix:
 Charge =  0 Multiplicity = 1

 SCF Done:  E(RB3LYP) =  -1735.91651543     A.U. after   16 cycles
 Normal termination of Gaussian 09 at Sat Aug  8 05:31:50 2020.
 Gaussian 09:  AM64L-G09RevD.01 24-Apr-2013

 ----------------------------------------------------------------------
 #p b3lyp/6-31G(d) scrf=(iefpcm,read,solvent=n-Octanol) geom=allcheck g
 uess=read
 ----------------------------------------------------------------------

 Structure from the checkpoint file:  "SM36.n.7.pdb.xyz.mst.n.o.chk"
 ----------------
 SM36.n.7.pdb.xyz
 ----------------
 Charge =  0 Multiplicity = 1

                         Standard orientation:
 ---------------------------------------------------------------------
 Center     Atomic      Atomic             Coordinates (Angstroms)
 Number     Number       Type             X           Y           Z
 ---------------------------------------------------------------------
      1          8           0       -2.657156   -0.451427    2.639772
      2         16           0       -2.378640    0.142956    1.326282
      3          7           0       -0.704256    0.154192    1.207331
      4          6           0        0.042937    1.162235    0.436903
      5          6           0       -0.099893    2.647198    0.859075
      6         16           0       -0.047176    3.220777   -0.920666
      7          8           0        1.395894    3.440656   -1.345293
      8          6           0       -0.456352    1.391230   -1.008240
      9          6           0        1.527858    0.757480    0.461152
     10          6           0        1.825286   -0.627535   -0.132493
     11          6           0        3.299233   -0.961549   -0.086260
     12          6           0        3.823463   -1.741982    0.952361
     13          6           0        5.187359   -2.030774    1.015020
     14          6           0        6.051635   -1.542141    0.035553
     15          6           0        5.541991   -0.763624   -1.005993
     16          6           0        4.178496   -0.477843   -1.064680
     17          6           0       -2.895892   -0.994295    0.045983
     18          6           0       -2.309838   -2.258756   -0.038601
     19          6           0       -2.777066   -3.153247   -0.997764
     20          6           0       -3.820523   -2.784821   -1.853106
     21          6           0       -4.403047   -1.520118   -1.751073
     22          6           0       -3.943087   -0.613855   -0.794844
     23          8           0       -2.942769    1.459389    0.983568
     24          1           0       -0.317973   -0.024632    2.132957
     25          1           0        0.695917    3.074951    1.470424
     26          1           0       -1.086006    2.883414    1.258436
     27          1           0        0.060290    0.866996   -1.811322
     28          1           0       -1.537397    1.305636   -1.117548
     29          1           0        1.881006    0.796123    1.499523
     30          1           0        2.075189    1.530881   -0.085512
     31          1           0        1.472815   -0.656547   -1.168671
     32          1           0        1.253819   -1.381905    0.414664
     33          1           0        3.152823   -2.130394    1.713827
     34          1           0        5.572437   -2.640271    1.827150
     35          1           0        7.111932   -1.766730    0.080583
     36          1           0        6.205954   -0.382956   -1.775169
     37          1           0        3.789803    0.125002   -1.880226
     38          1           0       -1.498595   -2.529845    0.625690
     39          1           0       -2.326265   -4.135568   -1.080216
     40          1           0       -4.179396   -3.485948   -2.598644
     41          1           0       -5.212443   -1.236145   -2.414598
     42          1           0       -4.374179    0.374300   -0.694855
 ---------------------------------------------------------------------

 SCF Done:  E(RB3LYP) =  -1735.94775730     A.U. after   11 cycles

 The electronic state is 1-A.
 Alpha  occ. eigenvalues --  -89.12757 -88.98865 -19.15823 -19.15568 -19.11829
 Alpha  occ. eigenvalues --  -14.37832 -10.26676 -10.23646 -10.22153 -10.21904
 Alpha  occ. eigenvalues --  -10.21766 -10.21539 -10.21241 -10.21121 -10.21082
 Alpha  occ. eigenvalues --  -10.19753 -10.19744 -10.19302 -10.19013 -10.18993
 Alpha  occ. eigenvalues --  -10.18859 -10.18848 -10.18804  -8.15255  -8.03671
 Alpha  occ. eigenvalues --   -6.11766  -6.11690  -6.11536  -6.00081  -5.99895
 Alpha  occ. eigenvalues --   -5.99451  -1.12453  -1.01421  -1.00948  -0.94591
 Alpha  occ. eigenvalues --   -0.88095  -0.85754  -0.84800  -0.79327  -0.78456
 Alpha  occ. eigenvalues --   -0.76922  -0.74361  -0.73996  -0.70582  -0.69137
 Alpha  occ. eigenvalues --   -0.66659  -0.62972  -0.62571  -0.60822  -0.60448
 Alpha  occ. eigenvalues --   -0.58028  -0.57163  -0.55252  -0.52677  -0.52037
 Alpha  occ. eigenvalues --   -0.51229  -0.49468  -0.48667  -0.47759  -0.46753
 Alpha  occ. eigenvalues --   -0.46356  -0.45865  -0.45329  -0.44462  -0.44400
 Alpha  occ. eigenvalues --   -0.43720  -0.42583  -0.41994  -0.41463  -0.40599
 Alpha  occ. eigenvalues --   -0.39448  -0.39286  -0.38822  -0.38440  -0.37575
 Alpha  occ. eigenvalues --   -0.36748  -0.36447  -0.35737  -0.35033  -0.34558
 Alpha  occ. eigenvalues --   -0.33592  -0.33344  -0.33225  -0.32097  -0.31506
 Alpha  occ. eigenvalues --   -0.29323  -0.27377  -0.26944  -0.26455  -0.25093
 Alpha  occ. eigenvalues --   -0.24421  -0.23311
 Alpha virt. eigenvalues --   -0.04314  -0.02312  -0.00237  -0.00123   0.00377
 Alpha virt. eigenvalues --    0.03058   0.04778   0.05948   0.06459   0.07926
 Alpha virt. eigenvalues --    0.08910   0.09401   0.10029   0.10551   0.11260

 Mulliken charges:
               1
     1  O   -0.543382
     2  S    1.214848
     3  N   -0.738787
     4  C    0.216818
     5  C   -0.482171
     6  S    0.747481
     7  O   -0.648488
     8  C   -0.489267
     9  C   -0.307776
    10  C   -0.358301
    11  C    0.167909
    12  C   -0.191722
    13  C   -0.138663
    14  C   -0.141580
    15  C   -0.139474
    16  C   -0.186488
    17  C   -0.148683
    18  C   -0.130332
    19  C   -0.134017
    20  C   -0.122885
    21  C   -0.130892
    22  C   -0.146037
    23  O   -0.571911
    24  H    0.378681
    25  H    0.201482
    26  H    0.222458
    27  H    0.205620
    28  H    0.210334
    29  H    0.151913
    30  H    0.191370
    31  H    0.152137
    32  H    0.157662
    33  H    0.131345
    34  H    0.139192
    35  H    0.138822
    36  H    0.140159
    37  H    0.136188
    38  H    0.174127
    39  H    0.163123
    40  H    0.162298
    41  H    0.163098
    42  H    0.183789
 Sum of Mulliken charges =   0.00000

 Dipole moment (field-independent basis, Debye):
    X=             -0.7924    Y=             -4.7936    Z=             -1.6186  Tot=              5.1211
 Quadrupole moment (field-independent basis, Debye-Ang):
   XX=           -147.9698   YY=           -152.6303   ZZ=           -148.8021
   XY=             -1.3826   XZ=             23.4620   YZ=             10.1721

 Normal termination of Gaussian 09 at Sat Aug  8 05:37:23 2020.
