 Gaussian 09, Revision D.01,

 -----------------
 #p b3lyp/6-31G(d)
 -----------------

 ----------------
 SM36.n.6.pdb.xyz
 ----------------
 Symbolic Z-matrix:
 Charge =  0 Multiplicity = 1

 SCF Done:  E(RB3LYP) =  -1735.90983094     A.U. after   16 cycles
 Normal termination of Gaussian 09 at Sat Aug  8 02:28:55 2020.
 Gaussian 09:  AM64L-G09RevD.01 24-Apr-2013

 ----------------------------------------------------------------------
 #p b3lyp/6-31G(d) scrf=(iefpcm,read,solvent=Water) geom=allcheck guess
 =read
 ----------------------------------------------------------------------

 Structure from the checkpoint file:  "SM36.n.6.pdb.xyz.mst.n.w.chk"
 ----------------
 SM36.n.6.pdb.xyz
 ----------------
 Charge =  0 Multiplicity = 1

                         Standard orientation:
 ---------------------------------------------------------------------
 Center     Atomic      Atomic             Coordinates (Angstroms)
 Number     Number       Type             X           Y           Z
 ---------------------------------------------------------------------
      1          8           0       -1.146527   -1.250602   -1.764142
      2         16           0       -1.578662   -1.486322   -0.378543
      3          7           0       -0.415031   -0.842855    0.632458
      4          6           0        0.233513    0.475512    0.529027
      5          6           0       -0.656210    1.747447    0.540531
      6         16           0        0.443676    2.598007   -0.709762
      7          8           0        1.557382    3.354759    0.013025
      8          6           0        0.890232    0.790442   -0.836233
      9          6           0        1.232610    0.565566    1.700773
     10          6           0        2.243615   -0.586696    1.851260
     11          6           0        3.354084   -0.647992    0.822723
     12          6           0        4.334359    0.354335    0.753322
     13          6           0        5.362969    0.286360   -0.184796
     14          6           0        5.436642   -0.790791   -1.072088
     15          6           0        4.474412   -1.799989   -1.008701
     16          6           0        3.443936   -1.726580   -0.067757
     17          6           0       -3.137692   -0.630703   -0.152026
     18          6           0       -3.836605   -0.783132    1.048118
     19          6           0       -5.050584   -0.119178    1.208191
     20          6           0       -5.554738    0.681554    0.178168
     21          6           0       -4.848436    0.819037   -1.019146
     22          6           0       -3.629121    0.160594   -1.191952
     23          8           0       -1.760770   -2.862396    0.107882
     24          1           0       -0.617283   -1.121728    1.593663
     25          1           0       -0.737934    2.289811    1.484097
     26          1           0       -1.639945    1.623349    0.087139
     27          1           0        1.960587    0.616917   -0.928722
     28          1           0        0.347963    0.366873   -1.680223
     29          1           0        0.645036    0.626681    2.624021
     30          1           0        1.749408    1.524319    1.599616
     31          1           0        1.707054   -1.538349    1.851086
     32          1           0        2.689999   -0.479638    2.846336
     33          1           0        4.291097    1.194623    1.442466
     34          1           0        6.111886    1.071381   -0.221547
     35          1           0        6.238164   -0.845006   -1.800916
     36          1           0        4.523715   -2.643862   -1.689090
     37          1           0        2.695642   -2.512151   -0.020694
     38          1           0       -3.445707   -1.414048    1.838273
     39          1           0       -5.603056   -0.229067    2.134174
     40          1           0       -6.500753    1.195834    0.308947
     41          1           0       -5.243871    1.433415   -1.820480
     42          1           0       -3.065606    0.244881   -2.113080
 ---------------------------------------------------------------------

 SCF Done:  E(RB3LYP) =  -1735.93402186     A.U. after   11 cycles

 The electronic state is 1-A.
 Alpha  occ. eigenvalues --  -89.12900 -88.98650 -19.15938 -19.15618 -19.11901
 Alpha  occ. eigenvalues --  -14.37769 -10.26440 -10.23563 -10.21718 -10.21677
 Alpha  occ. eigenvalues --  -10.21550 -10.21119 -10.20926 -10.20827 -10.20808
 Alpha  occ. eigenvalues --  -10.19686 -10.19514 -10.19013 -10.18980 -10.18955
 Alpha  occ. eigenvalues --  -10.18846 -10.18776 -10.18740  -8.15353  -8.03473
 Alpha  occ. eigenvalues --   -6.11847  -6.11800  -6.11650  -5.99893  -5.99686
 Alpha  occ. eigenvalues --   -5.99251  -1.12512  -1.01518  -1.00690  -0.94327
 Alpha  occ. eigenvalues --   -0.87869  -0.85688  -0.84598  -0.79035  -0.78115
 Alpha  occ. eigenvalues --   -0.76663  -0.74333  -0.73947  -0.69948  -0.69194
 Alpha  occ. eigenvalues --   -0.66397  -0.62770  -0.62425  -0.60995  -0.60289
 Alpha  occ. eigenvalues --   -0.57848  -0.56836  -0.55628  -0.52310  -0.51875
 Alpha  occ. eigenvalues --   -0.50580  -0.49521  -0.47728  -0.47688  -0.46367
 Alpha  occ. eigenvalues --   -0.45921  -0.45737  -0.45255  -0.44993  -0.44116
 Alpha  occ. eigenvalues --   -0.43631  -0.42496  -0.41618  -0.41542  -0.40351
 Alpha  occ. eigenvalues --   -0.39052  -0.38645  -0.38587  -0.38134  -0.37292
 Alpha  occ. eigenvalues --   -0.36492  -0.36414  -0.35992  -0.35239  -0.34034
 Alpha  occ. eigenvalues --   -0.33322  -0.33241  -0.32963  -0.31803  -0.31439
 Alpha  occ. eigenvalues --   -0.29725  -0.27176  -0.26795  -0.26431  -0.25202
 Alpha  occ. eigenvalues --   -0.24481  -0.23295
 Alpha virt. eigenvalues --   -0.04203  -0.02161  -0.00585  -0.00179   0.00882
 Alpha virt. eigenvalues --    0.03053   0.05075   0.06332   0.06632   0.08420
 Alpha virt. eigenvalues --    0.09097   0.10065   0.10579   0.11604   0.12122

 Mulliken charges:
               1
     1  O   -0.573980
     2  S    1.180005
     3  N   -0.712028
     4  C    0.225549
     5  C   -0.484667
     6  S    0.744587
     7  O   -0.687244
     8  C   -0.486232
     9  C   -0.322782
    10  C   -0.349006
    11  C    0.152762
    12  C   -0.192317
    13  C   -0.148044
    14  C   -0.152769
    15  C   -0.146393
    16  C   -0.201924
    17  C   -0.149644
    18  C   -0.144145
    19  C   -0.136480
    20  C   -0.127266
    21  C   -0.134067
    22  C   -0.153231
    23  O   -0.572947
    24  H    0.402940
    25  H    0.214626
    26  H    0.205658
    27  H    0.218904
    28  H    0.229860
    29  H    0.163425
    30  H    0.184440
    31  H    0.162790
    32  H    0.165296
    33  H    0.145065
    34  H    0.148708
    35  H    0.147885
    36  H    0.148574
    37  H    0.144963
    38  H    0.185534
    39  H    0.172138
    40  H    0.170730
    41  H    0.171824
    42  H    0.188903
 Sum of Mulliken charges =   0.00000

 Dipole moment (field-independent basis, Debye):
    X=             -5.7635    Y=              1.4806    Z=              3.9402  Tot=              7.1369
 Quadrupole moment (field-independent basis, Debye-Ang):
   XX=           -122.7327   YY=           -176.1714   ZZ=           -137.6199
   XY=            -20.3731   XZ=             -8.1769   YZ=             -4.7093

 Normal termination of Gaussian 09 at Sat Aug  8 02:35:09 2020.
