 Gaussian 09, Revision D.01,

 -----------------
 #p b3lyp/6-31G(d)
 -----------------

 -----------------
 SM36.n.15.pdb.xyz
 -----------------
 Symbolic Z-matrix:
 Charge =  0 Multiplicity = 1

 SCF Done:  E(RB3LYP) =  -1735.91111541     A.U. after   16 cycles
 Normal termination of Gaussian 09 at Sat Aug  8 02:28:00 2020.
 Gaussian 09:  AM64L-G09RevD.01 24-Apr-2013

 ----------------------------------------------------------------------
 #p b3lyp/6-31G(d) scrf=(iefpcm,read,solvent=Water) geom=allcheck guess
 =read
 ----------------------------------------------------------------------

 Structure from the checkpoint file:  "SM36.n.15.pdb.xyz.mst.n.w.chk"
 -----------------
 SM36.n.15.pdb.xyz
 -----------------
 Charge =  0 Multiplicity = 1

                         Standard orientation:
 ---------------------------------------------------------------------
 Center     Atomic      Atomic             Coordinates (Angstroms)
 Number     Number       Type             X           Y           Z
 ---------------------------------------------------------------------
      1          8           0       -1.839710   -2.511828   -1.590667
      2         16           0       -1.617344   -1.517109   -0.527151
      3          7           0       -0.896614   -0.209923   -1.290191
      4          6           0        0.083478    0.652244   -0.590430
      5          6           0       -0.488331    1.225823    0.727791
      6         16           0       -0.401258    2.993907    0.141873
      7          8           0        0.783229    3.708077    0.782699
      8          6           0        0.162310    2.006829   -1.341117
      9          6           0        1.441584   -0.056738   -0.455472
     10          6           0        2.552164    0.741913    0.247826
     11          6           0        3.858880   -0.019901    0.266302
     12          6           0        4.786596    0.123919   -0.774517
     13          6           0        5.980149   -0.598304   -0.778054
     14          6           0        6.268425   -1.481231    0.265004
     15          6           0        5.353961   -1.632381    1.309773
     16          6           0        4.160692   -0.907538    1.308615
     17          6           0       -3.204751   -0.889600    0.008320
     18          6           0       -4.031880   -0.230697   -0.905040
     19          6           0       -5.295403    0.182419   -0.489843
     20          6           0       -5.721427   -0.067940    0.818476
     21          6           0       -4.885861   -0.732351    1.718627
     22          6           0       -3.616296   -1.151208    1.315285
     23          8           0       -0.879297   -1.915852    0.683555
     24          1           0       -0.567599   -0.517812   -2.207608
     25          1           0        0.134025    1.082995    1.610296
     26          1           0       -1.518644    0.954085    0.951075
     27          1           0        1.160174    2.316845   -1.651048
     28          1           0       -0.544635    2.109945   -2.164650
     29          1           0        1.775720   -0.319342   -1.466772
     30          1           0        1.271366   -0.993730    0.081687
     31          1           0        2.248212    0.966719    1.274783
     32          1           0        2.698227    1.704165   -0.253063
     33          1           0        4.571864    0.813638   -1.587252
     34          1           0        6.687250   -0.467914   -1.592476
     35          1           0        7.197775   -2.041270    0.266144
     36          1           0        5.570745   -2.311690    2.128867
     37          1           0        3.456820   -1.025936    2.127367
     38          1           0       -3.689139   -0.034106   -1.913014
     39          1           0       -5.945564    0.700379   -1.186447
     40          1           0       -6.706785    0.257084    1.135110
     41          1           0       -5.216914   -0.924197    2.733148
     42          1           0       -2.948496   -1.663891    1.995669
 ---------------------------------------------------------------------

 SCF Done:  E(RB3LYP) =  -1735.93624833     A.U. after   11 cycles

 The electronic state is 1-A.
 Alpha  occ. eigenvalues --  -89.12683 -88.98817 -19.15789 -19.15597 -19.12180
 Alpha  occ. eigenvalues --  -14.37335 -10.26404 -10.23372 -10.21905 -10.21747
 Alpha  occ. eigenvalues --  -10.21497 -10.21423 -10.20797 -10.20668 -10.20646
 Alpha  occ. eigenvalues --  -10.19801 -10.19251 -10.19103 -10.19030 -10.19020
 Alpha  occ. eigenvalues --  -10.18871 -10.18834 -10.18832  -8.15173  -8.03643
 Alpha  occ. eigenvalues --   -6.11677  -6.11620  -6.11449  -6.00063  -5.99869
 Alpha  occ. eigenvalues --   -5.99406  -1.12302  -1.01265  -1.00955  -0.94336
 Alpha  occ. eigenvalues --   -0.87757  -0.85765  -0.84414  -0.79080  -0.78168
 Alpha  occ. eigenvalues --   -0.76513  -0.74360  -0.73734  -0.70883  -0.69225
 Alpha  occ. eigenvalues --   -0.66156  -0.62755  -0.62378  -0.60438  -0.60113
 Alpha  occ. eigenvalues --   -0.58101  -0.56386  -0.54918  -0.52815  -0.51941
 Alpha  occ. eigenvalues --   -0.50670  -0.49161  -0.48346  -0.47788  -0.47155
 Alpha  occ. eigenvalues --   -0.45832  -0.45385  -0.45261  -0.44282  -0.43968
 Alpha  occ. eigenvalues --   -0.43334  -0.42410  -0.41811  -0.41433  -0.40612
 Alpha  occ. eigenvalues --   -0.40296  -0.39080  -0.38191  -0.37858  -0.37353
 Alpha  occ. eigenvalues --   -0.36607  -0.36275  -0.35264  -0.35014  -0.34582
 Alpha  occ. eigenvalues --   -0.33722  -0.33580  -0.32855  -0.32030  -0.31389
 Alpha  occ. eigenvalues --   -0.29084  -0.27322  -0.26970  -0.26566  -0.25215
 Alpha  occ. eigenvalues --   -0.24523  -0.23242
 Alpha virt. eigenvalues --   -0.04016  -0.01924  -0.00295  -0.00255   0.00485
 Alpha virt. eigenvalues --    0.02084   0.04697   0.05903   0.07093   0.08863
 Alpha virt. eigenvalues --    0.09071   0.09455   0.10824   0.11262   0.11398

 Mulliken charges:
               1
     1  O   -0.569470
     2  S    1.213042
     3  N   -0.747188
     4  C    0.225968
     5  C   -0.506449
     6  S    0.770604
     7  O   -0.688702
     8  C   -0.491716
     9  C   -0.282946
    10  C   -0.377081
    11  C    0.160134
    12  C   -0.197199
    13  C   -0.149931
    14  C   -0.151870
    15  C   -0.150043
    16  C   -0.196893
    17  C   -0.157443
    18  C   -0.132163
    19  C   -0.139430
    20  C   -0.127445
    21  C   -0.137322
    22  C   -0.141627
    23  O   -0.577577
    24  H    0.407409
    25  H    0.223322
    26  H    0.214398
    27  H    0.218512
    28  H    0.218466
    29  H    0.157727
    30  H    0.178887
    31  H    0.162008
    32  H    0.161017
    33  H    0.143098
    34  H    0.148826
    35  H    0.148051
    36  H    0.148845
    37  H    0.143954
    38  H    0.182791
    39  H    0.170481
    40  H    0.169199
    41  H    0.170100
    42  H    0.185656
 Sum of Mulliken charges =   0.00000

 Dipole moment (field-independent basis, Debye):
    X=             -4.3862    Y=              1.1931    Z=             -2.3372  Tot=              5.1112
 Quadrupole moment (field-independent basis, Debye-Ang):
   XX=           -119.9637   YY=           -181.3393   ZZ=           -135.6037
   XY=            -17.0954   XZ=            -11.0645   YZ=            -17.0404

 Normal termination of Gaussian 09 at Sat Aug  8 02:33:38 2020.
