 Gaussian 09, Revision D.01,

 -----------------
 #p b3lyp/6-31G(d)
 -----------------

 -----------------
 SM36.n.15.pdb.xyz
 -----------------
 Symbolic Z-matrix:
 Charge =  0 Multiplicity = 1

 SCF Done:  E(RB3LYP) =  -1735.91183078     A.U. after   16 cycles
 Normal termination of Gaussian 09 at Sat Aug  8 04:49:35 2020.
 Gaussian 09:  AM64L-G09RevD.01 24-Apr-2013

 ----------------------------------------------------------------------
 #p b3lyp/6-31G(d) scrf=(iefpcm,read,solvent=n-Octanol) geom=allcheck g
 uess=read
 ----------------------------------------------------------------------

 Structure from the checkpoint file:  "SM36.n.15.pdb.xyz.mst.n.o.chk"
 -----------------
 SM36.n.15.pdb.xyz
 -----------------
 Charge =  0 Multiplicity = 1

                         Standard orientation:
 ---------------------------------------------------------------------
 Center     Atomic      Atomic             Coordinates (Angstroms)
 Number     Number       Type             X           Y           Z
 ---------------------------------------------------------------------
      1          8           0       -1.840384   -2.491587   -1.597429
      2         16           0       -1.623452   -1.504684   -0.531352
      3          7           0       -0.917727   -0.182922   -1.305187
      4          6           0        0.077155    0.667467   -0.613114
      5          6           0       -0.483967    1.234764    0.710563
      6         16           0       -0.339332    3.014289    0.158180
      7          8           0        0.873826    3.669489    0.788361
      8          6           0        0.163976    2.026217   -1.353256
      9          6           0        1.428872   -0.050952   -0.482668
     10          6           0        2.547553    0.741405    0.215395
     11          6           0        3.842223   -0.039419    0.254856
     12          6           0        4.834995    0.173133   -0.708665
     13          6           0        6.020324   -0.563208   -0.694619
     14          6           0        6.232331   -1.527173    0.291411
     15          6           0        5.251831   -1.747844    1.260719
     16          6           0        4.068395   -1.009320    1.240538
     17          6           0       -3.212637   -0.884837    0.009200
     18          6           0       -4.081658   -0.303788   -0.918337
     19          6           0       -5.340852    0.107825   -0.491818
     20          6           0       -5.722988   -0.066192    0.842229
     21          6           0       -4.846583   -0.654379    1.755326
     22          6           0       -3.580521   -1.072215    1.340936
     23          8           0       -0.873646   -1.873258    0.678313
     24          1           0       -0.602045   -0.497167   -2.222621
     25          1           0        0.123576    1.052818    1.595580
     26          1           0       -1.523860    0.986252    0.914978
     27          1           0        1.159784    2.319326   -1.687585
     28          1           0       -0.564443    2.148994   -2.154840
     29          1           0        1.759146   -0.319488   -1.493909
     30          1           0        1.250174   -0.985370    0.055765
     31          1           0        2.236234    0.993818    1.232942
     32          1           0        2.711386    1.694085   -0.297008
     33          1           0        4.677269    0.927634   -1.475567
     34          1           0        6.778444   -0.378727   -1.448817
     35          1           0        7.153915   -2.099543    0.307657
     36          1           0        5.410120   -2.492662    2.034827
     37          1           0        3.312909   -1.183595    2.002603
     38          1           0       -3.772220   -0.169185   -1.947080
     39          1           0       -6.023329    0.566189   -1.199103
     40          1           0       -6.705332    0.257293    1.167194
     41          1           0       -5.144070   -0.789764    2.789598
     42          1           0       -2.878094   -1.530208    2.026314
 ---------------------------------------------------------------------

 SCF Done:  E(RB3LYP) =  -1735.94416358     A.U. after   11 cycles

 The electronic state is 1-A.
 Alpha  occ. eigenvalues --  -89.12491 -88.98903 -19.15632 -19.15397 -19.11989
 Alpha  occ. eigenvalues --  -14.37600 -10.26604 -10.23548 -10.22082 -10.22080
 Alpha  occ. eigenvalues --  -10.21836 -10.21696 -10.21198 -10.21079 -10.21046
 Alpha  occ. eigenvalues --  -10.19666 -10.19441 -10.19157 -10.18944 -10.18933
 Alpha  occ. eigenvalues --  -10.18785 -10.18765 -10.18757  -8.14999  -8.03717
 Alpha  occ. eigenvalues --   -6.11506  -6.11432  -6.11281  -6.00129  -5.99953
 Alpha  occ. eigenvalues --   -5.99485  -1.12242  -1.01262  -1.01107  -0.94486
 Alpha  occ. eigenvalues --   -0.88055  -0.85698  -0.84486  -0.79118  -0.78415
 Alpha  occ. eigenvalues --   -0.76874  -0.74282  -0.73760  -0.71178  -0.69273
 Alpha  occ. eigenvalues --   -0.66309  -0.62998  -0.62638  -0.60423  -0.60338
 Alpha  occ. eigenvalues --   -0.58159  -0.56601  -0.55240  -0.53019  -0.52062
 Alpha  occ. eigenvalues --   -0.50726  -0.49293  -0.48443  -0.47911  -0.47392
 Alpha  occ. eigenvalues --   -0.46169  -0.45339  -0.45288  -0.44379  -0.44333
 Alpha  occ. eigenvalues --   -0.43647  -0.42526  -0.41832  -0.41458  -0.40664
 Alpha  occ. eigenvalues --   -0.40430  -0.39297  -0.38542  -0.37934  -0.37414
 Alpha  occ. eigenvalues --   -0.36684  -0.36472  -0.35299  -0.34948  -0.34687
 Alpha  occ. eigenvalues --   -0.33728  -0.33568  -0.32725  -0.31909  -0.31277
 Alpha  occ. eigenvalues --   -0.29308  -0.27416  -0.27021  -0.26677  -0.25009
 Alpha  occ. eigenvalues --   -0.24362  -0.23084
 Alpha virt. eigenvalues --   -0.04264  -0.02229  -0.00174  -0.00033   0.00268
 Alpha virt. eigenvalues --    0.02076   0.04393   0.05698   0.06862   0.08488
 Alpha virt. eigenvalues --    0.08949   0.09335   0.10455   0.10807   0.11083

 Mulliken charges:
               1
     1  O   -0.547635
     2  S    1.218311
     3  N   -0.748462
     4  C    0.231383
     5  C   -0.506131
     6  S    0.762841
     7  O   -0.647645
     8  C   -0.498487
     9  C   -0.286253
    10  C   -0.376805
    11  C    0.168749
    12  C   -0.190369
    13  C   -0.138910
    14  C   -0.141658
    15  C   -0.139522
    16  C   -0.186287
    17  C   -0.155844
    18  C   -0.127960
    19  C   -0.134228
    20  C   -0.122661
    21  C   -0.131310
    22  C   -0.144496
    23  O   -0.561329
    24  H    0.380250
    25  H    0.216748
    26  H    0.205281
    27  H    0.210563
    28  H    0.207513
    29  H    0.147805
    30  H    0.187133
    31  H    0.160516
    32  H    0.159023
    33  H    0.131501
    34  H    0.139018
    35  H    0.138351
    36  H    0.139667
    37  H    0.134117
    38  H    0.174313
    39  H    0.162742
    40  H    0.162050
    41  H    0.162808
    42  H    0.185311
 Sum of Mulliken charges =   0.00000

 Dipole moment (field-independent basis, Debye):
    X=             -4.1891    Y=              1.0061    Z=             -1.8427  Tot=              4.6857
 Quadrupole moment (field-independent basis, Debye-Ang):
   XX=           -121.5225   YY=           -177.0467   ZZ=           -137.2386
   XY=            -15.4174   XZ=            -10.2712   YZ=            -15.3656

 Normal termination of Gaussian 09 at Sat Aug  8 04:54:59 2020.
