 Gaussian 09, Revision D.01,

 -----------------
 #p b3lyp/6-31G(d)
 -----------------

 ----------------
 SM36.n.9.pdb.xyz
 ----------------
 Symbolic Z-matrix:
 Charge =  0 Multiplicity = 1

 SCF Done:  E(RB3LYP) =  -1735.91080879     A.U. after   16 cycles
 Normal termination of Gaussian 09 at Sat Aug  8 02:42:03 2020.
 Gaussian 09:  AM64L-G09RevD.01 24-Apr-2013

 ----------------------------------------------------------------------
 #p b3lyp/6-31G(d) scrf=(iefpcm,read,solvent=Water) geom=allcheck guess
 =read
 ----------------------------------------------------------------------

 Structure from the checkpoint file:  "SM36.n.9.pdb.xyz.mst.n.w.chk"
 ----------------
 SM36.n.9.pdb.xyz
 ----------------
 Charge =  0 Multiplicity = 1

                         Standard orientation:
 ---------------------------------------------------------------------
 Center     Atomic      Atomic             Coordinates (Angstroms)
 Number     Number       Type             X           Y           Z
 ---------------------------------------------------------------------
      1          8           0       -3.883231    1.070065   -0.413523
      2         16           0       -2.510528    0.563550   -0.591833
      3          7           0       -1.592749    1.424259    0.524181
      4          6           0       -0.163894    1.718331    0.286701
      5          6           0        0.338151    2.625052    1.439923
      6         16           0        0.944022    3.962624    0.283182
      7          8           0        2.459501    3.890653    0.136086
      8          6           0        0.112403    2.738938   -0.853657
      9          6           0        0.616005    0.399441    0.165284
     10          6           0        2.137630    0.541084   -0.016988
     11          6           0        2.818267   -0.808692   -0.085177
     12          6           0        3.009962   -1.454792   -1.313597
     13          6           0        3.616816   -2.710187   -1.376655
     14          6           0        4.044954   -3.341031   -0.207672
     15          6           0        3.862672   -2.706820    1.023402
     16          6           0        3.254521   -1.452297    1.081505
     17          6           0       -2.444952   -1.128314   -0.019782
     18          6           0       -2.733805   -1.418290    1.316523
     19          6           0       -2.753446   -2.749366    1.724079
     20          6           0       -2.496224   -3.770601    0.803247
     21          6           0       -2.216885   -3.465040   -0.530485
     22          6           0       -2.192112   -2.134364   -0.951625
     23          8           0       -1.908649    0.603100   -1.937175
     24          1           0       -2.132976    2.257109    0.767878
     25          1           0        1.155263    2.222559    2.039220
     26          1           0       -0.443988    3.013468    2.094212
     27          1           0        0.789150    2.414591   -1.644389
     28          1           0       -0.781447    3.183540   -1.288310
     29          1           0        0.214138   -0.159779   -0.684247
     30          1           0        0.410103   -0.186142    1.067147
     31          1           0        2.559335    1.122275    0.809355
     32          1           0        2.350544    1.101320   -0.932167
     33          1           0        2.684729   -0.966186   -2.227797
     34          1           0        3.758838   -3.191565   -2.339141
     35          1           0        4.521176   -4.315935   -0.254413
     36          1           0        4.197641   -3.186787    1.938375
     37          1           0        3.121289   -0.962102    2.041752
     38          1           0       -2.924550   -0.620010    2.022476
     39          1           0       -2.968040   -2.989173    2.759871
     40          1           0       -2.512375   -4.805438    1.127875
     41          1           0       -2.015679   -4.257187   -1.242679
     42          1           0       -1.971157   -1.872023   -1.979125
 ---------------------------------------------------------------------

 SCF Done:  E(RB3LYP) =  -1735.93648575     A.U. after   11 cycles

 The electronic state is 1-A.
 Alpha  occ. eigenvalues --  -89.12598 -88.98671 -19.15732 -19.15555 -19.12053
 Alpha  occ. eigenvalues --  -14.37462 -10.26449 -10.23359 -10.21969 -10.21519
 Alpha  occ. eigenvalues --  -10.21463 -10.21382 -10.20764 -10.20634 -10.20605
 Alpha  occ. eigenvalues --  -10.19771 -10.19641 -10.19135 -10.19010 -10.18989
 Alpha  occ. eigenvalues --  -10.18859 -10.18819 -10.18809  -8.15112  -8.03503
 Alpha  occ. eigenvalues --   -6.11611  -6.11554  -6.11391  -5.99925  -5.99727
 Alpha  occ. eigenvalues --   -5.99268  -1.12207  -1.01141  -1.00849  -0.94384
 Alpha  occ. eigenvalues --   -0.87722  -0.85756  -0.84286  -0.79137  -0.78078
 Alpha  occ. eigenvalues --   -0.76483  -0.74351  -0.73874  -0.70598  -0.69283
 Alpha  occ. eigenvalues --   -0.66665  -0.62685  -0.62211  -0.60438  -0.59800
 Alpha  occ. eigenvalues --   -0.58347  -0.56231  -0.54641  -0.52362  -0.51983
 Alpha  occ. eigenvalues --   -0.50596  -0.49179  -0.48481  -0.47693  -0.47307
 Alpha  occ. eigenvalues --   -0.45852  -0.45386  -0.45233  -0.44704  -0.43921
 Alpha  occ. eigenvalues --   -0.43667  -0.42231  -0.41807  -0.41315  -0.40273
 Alpha  occ. eigenvalues --   -0.39750  -0.39027  -0.38365  -0.38150  -0.37705
 Alpha  occ. eigenvalues --   -0.36281  -0.35997  -0.35426  -0.34971  -0.34633
 Alpha  occ. eigenvalues --   -0.33593  -0.33301  -0.33035  -0.32168  -0.31384
 Alpha  occ. eigenvalues --   -0.29013  -0.27114  -0.26982  -0.26392  -0.25190
 Alpha  occ. eigenvalues --   -0.24530  -0.23357
 Alpha virt. eigenvalues --   -0.03975  -0.01905  -0.00268  -0.00244   0.00754
 Alpha virt. eigenvalues --    0.02127   0.05043   0.05826   0.06833   0.08420
 Alpha virt. eigenvalues --    0.08844   0.09727   0.10641   0.11390   0.11513

 Mulliken charges:
               1
     1  O   -0.573710
     2  S    1.215743
     3  N   -0.747139
     4  C    0.236044
     5  C   -0.503669
     6  S    0.764913
     7  O   -0.688695
     8  C   -0.486682
     9  C   -0.297897
    10  C   -0.376317
    11  C    0.161503
    12  C   -0.195484
    13  C   -0.149534
    14  C   -0.151887
    15  C   -0.150366
    16  C   -0.196215
    17  C   -0.146158
    18  C   -0.134784
    19  C   -0.140565
    20  C   -0.127661
    21  C   -0.137402
    22  C   -0.143203
    23  O   -0.582252
    24  H    0.403368
    25  H    0.222191
    26  H    0.217436
    27  H    0.217038
    28  H    0.216747
    29  H    0.173279
    30  H    0.168807
    31  H    0.163244
    32  H    0.162777
    33  H    0.143639
    34  H    0.148534
    35  H    0.147650
    36  H    0.148599
    37  H    0.143099
    38  H    0.182164
    39  H    0.170054
    40  H    0.168845
    41  H    0.169708
    42  H    0.184238
 Sum of Mulliken charges =   0.00000

 Dipole moment (field-independent basis, Debye):
    X=             -1.5740    Y=             -4.4554    Z=              4.3509  Tot=              6.4233
 Quadrupole moment (field-independent basis, Debye-Ang):
   XX=           -178.0873   YY=           -137.8701   ZZ=           -137.4255
   XY=            -10.6182   XZ=            -10.2977   YZ=              4.1695

 Normal termination of Gaussian 09 at Sat Aug  8 02:48:09 2020.
