 Gaussian 09, Revision D.01,

 -----------------
 #p b3lyp/6-31G(d)
 -----------------

 -----------------
 SM36.n.13.pdb.xyz
 -----------------
 Symbolic Z-matrix:
 Charge =  0 Multiplicity = 1

 SCF Done:  E(RB3LYP) =  -1735.91054548     A.U. after   16 cycles
 Normal termination of Gaussian 09 at Sat Aug  8 04:35:48 2020.
 Gaussian 09:  AM64L-G09RevD.01 24-Apr-2013

 ----------------------------------------------------------------------
 #p b3lyp/6-31G(d) scrf=(iefpcm,read,solvent=n-Octanol) geom=allcheck g
 uess=read
 ----------------------------------------------------------------------

 Structure from the checkpoint file:  "SM36.n.13.pdb.xyz.mst.n.o.chk"
 -----------------
 SM36.n.13.pdb.xyz
 -----------------
 Charge =  0 Multiplicity = 1

                         Standard orientation:
 ---------------------------------------------------------------------
 Center     Atomic      Atomic             Coordinates (Angstroms)
 Number     Number       Type             X           Y           Z
 ---------------------------------------------------------------------
      1          8           0       -2.721874   -1.732942    2.002664
      2         16           0       -1.882667   -0.794495    1.244754
      3          7           0       -1.027845   -1.777696    0.172163
      4          6           0        0.327237   -1.416536   -0.287869
      5          6           0        0.888554   -2.597058   -1.118834
      6         16           0        2.447401   -2.742805   -0.094549
      7          8           0        3.612093   -2.105640   -0.837427
      8          6           0        1.434849   -1.451045    0.803544
      9          6           0        0.254223   -0.108579   -1.092063
     10          6           0        1.606935    0.424884   -1.620558
     11          6           0        2.302067    1.418705   -0.708227
     12          6           0        3.595034    1.172413   -0.228765
     13          6           0        4.246269    2.106925    0.580312
     14          6           0        3.613497    3.301134    0.923928
     15          6           0        2.322535    3.555194    0.454744
     16          6           0        1.676236    2.622301   -0.354184
     17          6           0       -2.935083    0.200234    0.196586
     18          6           0       -3.758269   -0.417162   -0.744367
     19          6           0       -4.623088    0.368646   -1.501564
     20          6           0       -4.662079    1.753430   -1.305862
     21          6           0       -3.837293    2.354538   -0.355052
     22          6           0       -2.966289    1.578377    0.407950
     23          8           0       -0.978477    0.121691    1.954494
     24          1           0       -1.099756   -2.729509    0.531546
     25          1           0        1.128899   -2.371900   -2.158334
     26          1           0        0.304440   -3.517602   -1.066573
     27          1           0        2.001659   -0.531147    0.942537
     28          1           0        1.109797   -1.839836    1.768513
     29          1           0       -0.210336    0.658820   -0.468723
     30          1           0       -0.426569   -0.298616   -1.928642
     31          1           0        1.411229    0.917688   -2.580127
     32          1           0        2.291442   -0.403677   -1.830691
     33          1           0        4.076020    0.232812   -0.484750
     34          1           0        5.248117    1.898385    0.943372
     35          1           0        4.118077    4.027081    1.554005
     36          1           0        1.821344    4.482981    0.716401
     37          1           0        0.673472    2.830570   -0.717543
     38          1           0       -3.712300   -1.489974   -0.888829
     39          1           0       -5.263517   -0.097247   -2.242128
     40          1           0       -5.336134    2.362527   -1.898236
     41          1           0       -3.870834    3.427927   -0.205668
     42          1           0       -2.311838    2.018121    1.149292
 ---------------------------------------------------------------------

 SCF Done:  E(RB3LYP) =  -1735.94205000     A.U. after   11 cycles

 The electronic state is 1-A.
 Alpha  occ. eigenvalues --  -89.12309 -88.98873 -19.15438 -19.15239 -19.12220
 Alpha  occ. eigenvalues --  -14.37633 -10.26598 -10.23420 -10.22460 -10.21703
 Alpha  occ. eigenvalues --  -10.21572 -10.21548 -10.21107 -10.20998 -10.20931
 Alpha  occ. eigenvalues --  -10.19655 -10.19344 -10.18876 -10.18776 -10.18634
 Alpha  occ. eigenvalues --  -10.18568 -10.18540 -10.18009  -8.14836  -8.03717
 Alpha  occ. eigenvalues --   -6.11340  -6.11265  -6.11120  -6.00134  -5.99941
 Alpha  occ. eigenvalues --   -5.99485  -1.12100  -1.01146  -1.01059  -0.94482
 Alpha  occ. eigenvalues --   -0.87985  -0.85449  -0.84324  -0.78835  -0.78277
 Alpha  occ. eigenvalues --   -0.76801  -0.74012  -0.73732  -0.70803  -0.69314
 Alpha  occ. eigenvalues --   -0.66700  -0.62916  -0.62554  -0.60316  -0.59703
 Alpha  occ. eigenvalues --   -0.58198  -0.56336  -0.54906  -0.52510  -0.51986
 Alpha  occ. eigenvalues --   -0.50753  -0.49357  -0.48428  -0.47692  -0.46809
 Alpha  occ. eigenvalues --   -0.46137  -0.45186  -0.45026  -0.44593  -0.44270
 Alpha  occ. eigenvalues --   -0.43983  -0.42441  -0.41713  -0.41374  -0.40454
 Alpha  occ. eigenvalues --   -0.39470  -0.39054  -0.38576  -0.38410  -0.37441
 Alpha  occ. eigenvalues --   -0.36611  -0.36033  -0.35892  -0.34806  -0.34281
 Alpha  occ. eigenvalues --   -0.32972  -0.32896  -0.32751  -0.31845  -0.31153
 Alpha  occ. eigenvalues --   -0.29110  -0.27240  -0.27152  -0.26467  -0.24729
 Alpha  occ. eigenvalues --   -0.24066  -0.23457
 Alpha virt. eigenvalues --   -0.04121  -0.02170  -0.00204   0.00190   0.00302
 Alpha virt. eigenvalues --    0.01981   0.04836   0.05663   0.06539   0.08204
 Alpha virt. eigenvalues --    0.09442   0.10118   0.10424   0.10813   0.11433

 Mulliken charges:
               1
     1  O   -0.552225
     2  S    1.216110
     3  N   -0.744390
     4  C    0.238165
     5  C   -0.508552
     6  S    0.757386
     7  O   -0.642061
     8  C   -0.494390
     9  C   -0.297688
    10  C   -0.391601
    11  C    0.151888
    12  C   -0.217407
    13  C   -0.139581
    14  C   -0.141744
    15  C   -0.138818
    16  C   -0.179734
    17  C   -0.143432
    18  C   -0.129350
    19  C   -0.135568
    20  C   -0.123288
    21  C   -0.132060
    22  C   -0.146575
    23  O   -0.562762
    24  H    0.374073
    25  H    0.218975
    26  H    0.204515
    27  H    0.227874
    28  H    0.204547
    29  H    0.178805
    30  H    0.159074
    31  H    0.161054
    32  H    0.179012
    33  H    0.169643
    34  H    0.136741
    35  H    0.136085
    36  H    0.136194
    37  H    0.129164
    38  H    0.173797
    39  H    0.161945
    40  H    0.160811
    41  H    0.161300
    42  H    0.184069
 Sum of Mulliken charges =   0.00000

 Dipole moment (field-independent basis, Debye):
    X=             -4.5289    Y=              0.4291    Z=             -3.8709  Tot=              5.9732
 Quadrupole moment (field-independent basis, Debye-Ang):
   XX=           -156.1823   YY=           -132.7591   ZZ=           -153.4943
   XY=             -3.3603   XZ=             22.5120   YZ=              3.7987

 Normal termination of Gaussian 09 at Sat Aug  8 04:41:42 2020.
