 Gaussian 09, Revision D.01,

 -----------------
 #p b3lyp/6-31G(d)
 -----------------

 ----------------
 SM36.n.1.pdb.xyz
 ----------------
 Symbolic Z-matrix:
 Charge =  0 Multiplicity = 1

 SCF Done:  E(RB3LYP) =  -1735.91455057     A.U. after   16 cycles
 Normal termination of Gaussian 09 at Sat Aug  8 05:03:39 2020.
 Gaussian 09:  AM64L-G09RevD.01 24-Apr-2013

 ----------------------------------------------------------------------
 #p b3lyp/6-31G(d) scrf=(iefpcm,read,solvent=n-Octanol) geom=allcheck g
 uess=read
 ----------------------------------------------------------------------

 Structure from the checkpoint file:  "SM36.n.1.pdb.xyz.mst.n.o.chk"
 ----------------
 SM36.n.1.pdb.xyz
 ----------------
 Charge =  0 Multiplicity = 1

                         Standard orientation:
 ---------------------------------------------------------------------
 Center     Atomic      Atomic             Coordinates (Angstroms)
 Number     Number       Type             X           Y           Z
 ---------------------------------------------------------------------
      1          8           0       -0.233140    1.338253    2.652209
      2         16           0        0.662018    1.128634    1.507109
      3          7           0        0.191452   -0.339427    0.853969
      4          6           0        1.100472   -1.268736    0.174873
      5          6           0        2.343412   -1.774324    0.955732
      6         16           0        3.415743   -1.698053   -0.573297
      7          8           0        3.324485   -3.014102   -1.328801
      8          6           0        1.922308   -0.636816   -0.973342
      9          6           0        0.293552   -2.487192   -0.316521
     10          6           0       -0.863427   -2.206897   -1.291296
     11          6           0       -2.178735   -1.773634   -0.673119
     12          6           0       -2.879192   -0.678581   -1.192818
     13          6           0       -4.113205   -0.295157   -0.665627
     14          6           0       -4.670667   -1.005254    0.399380
     15          6           0       -3.985711   -2.102662    0.923995
     16          6           0       -2.754055   -2.484880    0.389949
     17          6           0        0.273173    2.339032    0.246290
     18          6           0       -1.031462    2.428903   -0.246006
     19          6           0       -1.329347    3.418209   -1.180056
     20          6           0       -0.335290    4.305503   -1.606015
     21          6           0        0.961441    4.208641   -1.098664
     22          6           0        1.273061    3.221446   -0.162401
     23          8           0        2.122065    1.166287    1.690065
     24          1           0       -0.504813   -0.770384    1.456941
     25          1           0        2.290723   -2.773635    1.389739
     26          1           0        2.723015   -1.045635    1.672006
     27          1           0        1.552192   -0.764253   -1.991047
     28          1           0        2.200286    0.400325   -0.787998
     29          1           0       -0.077726   -3.031480    0.560028
     30          1           0        1.023233   -3.142914   -0.799610
     31          1           0       -1.036177   -3.130546   -1.856971
     32          1           0       -0.553729   -1.460298   -2.030119
     33          1           0       -2.447474   -0.123187   -2.019923
     34          1           0       -4.638372    0.555991   -1.086315
     35          1           0       -5.627716   -0.709234    0.813340
     36          1           0       -4.412879   -2.665681    1.747756
     37          1           0       -2.238669   -3.347543    0.802345
     38          1           0       -1.791104    1.732097    0.083411
     39          1           0       -2.335662    3.496108   -1.575278
     40          1           0       -0.574854    5.074125   -2.333730
     41          1           0        1.729849    4.899277   -1.427804
     42          1           0        2.270282    3.124452    0.250532
 ---------------------------------------------------------------------

 SCF Done:  E(RB3LYP) =  -1735.94465024     A.U. after   11 cycles

 The electronic state is 1-A.
 Alpha  occ. eigenvalues --  -89.12710 -88.98804 -19.15745 -19.15471 -19.11794
 Alpha  occ. eigenvalues --  -14.37635 -10.26699 -10.23501 -10.22100 -10.21681
 Alpha  occ. eigenvalues --  -10.21653 -10.21395 -10.21160 -10.21044 -10.20993
 Alpha  occ. eigenvalues --  -10.20120 -10.19931 -10.19660 -10.19353 -10.19346
 Alpha  occ. eigenvalues --  -10.19146 -10.19105 -10.19074  -8.15185  -8.03613
 Alpha  occ. eigenvalues --   -6.11700  -6.11624  -6.11463  -6.00025  -5.99836
 Alpha  occ. eigenvalues --   -5.99393  -1.12379  -1.01390  -1.00930  -0.94465
 Alpha  occ. eigenvalues --   -0.87959  -0.85970  -0.84810  -0.79387  -0.78315
 Alpha  occ. eigenvalues --   -0.76804  -0.74715  -0.74106  -0.70517  -0.69379
 Alpha  occ. eigenvalues --   -0.66642  -0.63120  -0.62732  -0.60849  -0.60662
 Alpha  occ. eigenvalues --   -0.58259  -0.56996  -0.55331  -0.52627  -0.51963
 Alpha  occ. eigenvalues --   -0.51535  -0.49388  -0.48722  -0.47697  -0.46312
 Alpha  occ. eigenvalues --   -0.46242  -0.45610  -0.45442  -0.44844  -0.44335
 Alpha  occ. eigenvalues --   -0.43836  -0.43692  -0.42308  -0.41452  -0.40305
 Alpha  occ. eigenvalues --   -0.39198  -0.39100  -0.38628  -0.38381  -0.38047
 Alpha  occ. eigenvalues --   -0.36696  -0.36474  -0.36124  -0.35327  -0.34553
 Alpha  occ. eigenvalues --   -0.33822  -0.33376  -0.33082  -0.31862  -0.31441
 Alpha  occ. eigenvalues --   -0.29329  -0.27300  -0.26834  -0.26338  -0.25431
 Alpha  occ. eigenvalues --   -0.24486  -0.23322
 Alpha virt. eigenvalues --   -0.04219  -0.02243  -0.00791  -0.00339   0.00500
 Alpha virt. eigenvalues --    0.03090   0.05230   0.05995   0.06577   0.08159
 Alpha virt. eigenvalues --    0.09064   0.09207   0.10008   0.10563   0.11442

 Mulliken charges:
               1
     1  O   -0.548153
     2  S    1.218622
     3  N   -0.733978
     4  C    0.226010
     5  C   -0.484424
     6  S    0.745603
     7  O   -0.651043
     8  C   -0.486997
     9  C   -0.323016
    10  C   -0.351058
    11  C    0.179802
    12  C   -0.200593
    13  C   -0.138982
    14  C   -0.139526
    15  C   -0.135126
    16  C   -0.208730
    17  C   -0.147872
    18  C   -0.135561
    19  C   -0.137645
    20  C   -0.123495
    21  C   -0.131174
    22  C   -0.147970
    23  O   -0.573050
    24  H    0.372013
    25  H    0.200305
    26  H    0.225723
    27  H    0.205958
    28  H    0.207118
    29  H    0.156155
    30  H    0.189702
    31  H    0.170787
    32  H    0.152556
    33  H    0.135533
    34  H    0.140729
    35  H    0.141618
    36  H    0.142641
    37  H    0.140858
    38  H    0.180173
    39  H    0.159638
    40  H    0.161185
    41  H    0.162185
    42  H    0.183475
 Sum of Mulliken charges =   0.00000

 Dipole moment (field-independent basis, Debye):
    X=             -3.8947    Y=              2.6187    Z=             -2.6677  Tot=              5.3984
 Quadrupole moment (field-independent basis, Debye-Ang):
   XX=           -152.5369   YY=           -142.8764   ZZ=           -155.8357
   XY=             10.9179   XZ=              3.9158   YZ=            -25.2666

 Normal termination of Gaussian 09 at Sat Aug  8 05:09:43 2020.
