 Gaussian 09, Revision D.01,

 -----------------
 #p b3lyp/6-31G(d)
 -----------------

 ----------------
 SM36.n.4.pdb.xyz
 ----------------
 Symbolic Z-matrix:
 Charge =  0 Multiplicity = 1

 SCF Done:  E(RB3LYP) =  -1735.91087608     A.U. after   16 cycles
 Normal termination of Gaussian 09 at Sat Aug  8 02:28:31 2020.
 Gaussian 09:  AM64L-G09RevD.01 24-Apr-2013

 ----------------------------------------------------------------------
 #p b3lyp/6-31G(d) scrf=(iefpcm,read,solvent=Water) geom=allcheck guess
 =read
 ----------------------------------------------------------------------

 Structure from the checkpoint file:  "SM36.n.4.pdb.xyz.mst.n.w.chk"
 ----------------
 SM36.n.4.pdb.xyz
 ----------------
 Charge =  0 Multiplicity = 1

                         Standard orientation:
 ---------------------------------------------------------------------
 Center     Atomic      Atomic             Coordinates (Angstroms)
 Number     Number       Type             X           Y           Z
 ---------------------------------------------------------------------
      1          8           0       -3.875960    1.093378   -0.395239
      2         16           0       -2.506517    0.582174   -0.580257
      3          7           0       -1.580593    1.434508    0.534164
      4          6           0       -0.151391    1.723902    0.291211
      5          6           0        0.353801    2.641077    1.434471
      6         16           0        0.975589    3.960229    0.266353
      7          8           0        2.490685    3.868582    0.117415
      8          6           0        0.126994    2.736208   -0.856757
      9          6           0        0.620917    0.401072    0.178142
     10          6           0        2.144957    0.529399   -0.002438
     11          6           0        2.809964   -0.827439   -0.079025
     12          6           0        2.963687   -1.483289   -1.308344
     13          6           0        3.554562   -2.745723   -1.379420
     14          6           0        4.004000   -3.375836   -0.216653
     15          6           0        3.858594   -2.732428    1.014676
     16          6           0        3.266880   -1.470413    1.079659
     17          6           0       -2.447454   -1.113205   -0.017010
     18          6           0       -2.736178   -1.408874    1.318076
     19          6           0       -2.761653   -2.742601    1.718372
     20          6           0       -2.509233   -3.759748    0.792660
     21          6           0       -2.229444   -3.447828   -0.540181
     22          6           0       -2.199336   -2.115594   -0.953978
     23          8           0       -1.908810    0.623763   -1.927750
     24          1           0       -2.116726    2.267742    0.785806
     25          1           0        1.161898    2.238565    2.046194
     26          1           0       -0.429901    3.045140    2.077027
     27          1           0        0.794366    2.401742   -1.651893
     28          1           0       -0.766470    3.187708   -1.287597
     29          1           0        0.217267   -0.158445   -0.669879
     30          1           0        0.409620   -0.179950    1.082177
     31          1           0        2.571863    1.099566    0.827205
     32          1           0        2.364067    1.093117   -0.913579
     33          1           0        2.621728   -0.996399   -2.217211
     34          1           0        3.667754   -3.234670   -2.342192
     35          1           0        4.466920   -4.355719   -0.270035
     36          1           0        4.210394   -3.211308    1.923442
     37          1           0        3.162134   -0.972887    2.040677
     38          1           0       -2.923086   -0.613525    2.028626
     39          1           0       -2.976571   -2.986899    2.753513
     40          1           0       -2.529465   -4.796034    1.111847
     41          1           0       -2.033503   -4.236998   -1.256831
     42          1           0       -1.978609   -1.848604   -1.980157
 ---------------------------------------------------------------------

 SCF Done:  E(RB3LYP) =  -1735.93647322     A.U. after   11 cycles

 The electronic state is 1-A.
 Alpha  occ. eigenvalues --  -89.12597 -88.98663 -19.15717 -19.15559 -19.12034
 Alpha  occ. eigenvalues --  -14.37464 -10.26449 -10.23355 -10.21974 -10.21540
 Alpha  occ. eigenvalues --  -10.21469 -10.21368 -10.20762 -10.20635 -10.20602
 Alpha  occ. eigenvalues --  -10.19779 -10.19639 -10.19110 -10.19018 -10.19008
 Alpha  occ. eigenvalues --  -10.18869 -10.18830 -10.18822  -8.15111  -8.03495
 Alpha  occ. eigenvalues --   -6.11610  -6.11553  -6.11389  -5.99916  -5.99718
 Alpha  occ. eigenvalues --   -5.99260  -1.12214  -1.01144  -1.00794  -0.94387
 Alpha  occ. eigenvalues --   -0.87719  -0.85754  -0.84292  -0.79137  -0.78074
 Alpha  occ. eigenvalues --   -0.76481  -0.74354  -0.73881  -0.70586  -0.69279
 Alpha  occ. eigenvalues --   -0.66670  -0.62690  -0.62212  -0.60435  -0.59794
 Alpha  occ. eigenvalues --   -0.58350  -0.56223  -0.54650  -0.52364  -0.51979
 Alpha  occ. eigenvalues --   -0.50601  -0.49184  -0.48482  -0.47700  -0.47302
 Alpha  occ. eigenvalues --   -0.45845  -0.45382  -0.45242  -0.44690  -0.43916
 Alpha  occ. eigenvalues --   -0.43639  -0.42209  -0.41806  -0.41334  -0.40273
 Alpha  occ. eigenvalues --   -0.39745  -0.39032  -0.38332  -0.38153  -0.37695
 Alpha  occ. eigenvalues --   -0.36276  -0.35997  -0.35430  -0.34938  -0.34643
 Alpha  occ. eigenvalues --   -0.33593  -0.33305  -0.33032  -0.32169  -0.31385
 Alpha  occ. eigenvalues --   -0.29011  -0.27095  -0.26981  -0.26395  -0.25201
 Alpha  occ. eigenvalues --   -0.24530  -0.23353
 Alpha virt. eigenvalues --   -0.03972  -0.01902  -0.00279  -0.00256   0.00744
 Alpha virt. eigenvalues --    0.02160   0.05062   0.05834   0.06826   0.08425
 Alpha virt. eigenvalues --    0.08850   0.09747   0.10633   0.11393   0.11547

 Mulliken charges:
               1
     1  O   -0.573333
     2  S    1.215323
     3  N   -0.746875
     4  C    0.236980
     5  C   -0.504281
     6  S    0.764630
     7  O   -0.688141
     8  C   -0.486641
     9  C   -0.297711
    10  C   -0.375226
    11  C    0.160654
    12  C   -0.195437
    13  C   -0.149704
    14  C   -0.152167
    15  C   -0.150053
    16  C   -0.196971
    17  C   -0.146002
    18  C   -0.135041
    19  C   -0.140615
    20  C   -0.127551
    21  C   -0.137617
    22  C   -0.143249
    23  O   -0.582602
    24  H    0.403437
    25  H    0.222457
    26  H    0.217347
    27  H    0.216519
    28  H    0.216754
    29  H    0.172840
    30  H    0.168693
    31  H    0.163795
    32  H    0.162821
    33  H    0.143631
    34  H    0.148708
    35  H    0.147839
    36  H    0.148714
    37  H    0.143112
    38  H    0.182191
    39  H    0.170010
    40  H    0.168880
    41  H    0.169678
    42  H    0.184201
 Sum of Mulliken charges =   0.00000

 Dipole moment (field-independent basis, Debye):
    X=             -1.6017    Y=             -4.4059    Z=              4.3666  Tot=              6.4066
 Quadrupole moment (field-independent basis, Debye-Ang):
   XX=           -178.2963   YY=           -137.4883   ZZ=           -137.3793
   XY=            -10.3499   XZ=             -9.9163   YZ=              4.5074

 Normal termination of Gaussian 09 at Sat Aug  8 02:34:41 2020.
