 Gaussian 09, Revision D.01,

 -----------------
 #p b3lyp/6-31G(d)
 -----------------

 ----------------
 SM36.n.8.pdb.xyz
 ----------------
 Symbolic Z-matrix:
 Charge =  0 Multiplicity = 1

 SCF Done:  E(RB3LYP) =  -1735.91376609     A.U. after   16 cycles
 Normal termination of Gaussian 09 at Sat Aug  8 02:29:28 2020.
 Gaussian 09:  AM64L-G09RevD.01 24-Apr-2013

 ----------------------------------------------------------------------
 #p b3lyp/6-31G(d) scrf=(iefpcm,read,solvent=Water) geom=allcheck guess
 =read
 ----------------------------------------------------------------------

 Structure from the checkpoint file:  "SM36.n.8.pdb.xyz.mst.n.w.chk"
 ----------------
 SM36.n.8.pdb.xyz
 ----------------
 Charge =  0 Multiplicity = 1

                         Standard orientation:
 ---------------------------------------------------------------------
 Center     Atomic      Atomic             Coordinates (Angstroms)
 Number     Number       Type             X           Y           Z
 ---------------------------------------------------------------------
      1          8           0        3.280442   -1.314324    1.647901
      2         16           0        2.350637   -1.094354    0.526653
      3          7           0        0.826512   -1.112452    1.215720
      4          6           0       -0.388674   -1.548167    0.507283
      5          6           0       -0.431897   -3.009943   -0.011146
      6         16           0       -1.334793   -2.499404   -1.562796
      7          8           0       -2.841250   -2.518671   -1.312714
      8          6           0       -0.604619   -0.915753   -0.889286
      9          6           0       -1.573946   -1.317709    1.464515
     10          6           0       -1.766984    0.112671    1.997392
     11          6           0       -2.393337    1.104949    1.038238
     12          6           0       -3.682111    0.897424    0.522919
     13          6           0       -4.267208    1.824164   -0.340132
     14          6           0       -3.573295    2.981451   -0.704912
     15          6           0       -2.292301    3.202788   -0.195814
     16          6           0       -1.710489    2.271260    0.668753
     17          6           0        2.557021    0.581166   -0.064921
     18          6           0        2.385207    1.648695    0.821857
     19          6           0        2.616552    2.944462    0.366105
     20          6           0        3.017186    3.162002   -0.957632
     21          6           0        3.191881    2.085897   -1.828311
     22          6           0        2.964480    0.781202   -1.384295
     23          8           0        2.423221   -1.982749   -0.647849
     24          1           0        0.902698   -1.484856    2.163699
     25          1           0       -0.980933   -3.737997    0.587533
     26          1           0        0.545265   -3.391282   -0.304656
     27          1           0       -1.269336   -0.058573   -0.963814
     28          1           0        0.322882   -0.739784   -1.435412
     29          1           0       -1.430838   -1.991326    2.317336
     30          1           0       -2.473507   -1.664310    0.946697
     31          1           0       -0.802393    0.499288    2.336542
     32          1           0       -2.403295    0.037324    2.886395
     33          1           0       -4.232703    0.003087    0.801598
     34          1           0       -5.265270    1.644607   -0.725866
     35          1           0       -4.027751    3.702806   -1.375567
     36          1           0       -1.744351    4.098208   -0.471518
     37          1           0       -0.711913    2.444366    1.058972
     38          1           0        2.073049    1.469282    1.842892
     39          1           0        2.483446    3.781819    1.041285
     40          1           0        3.193180    4.174160   -1.306203
     41          1           0        3.504396    2.255963   -2.853022
     42          1           0        3.094195   -0.068882   -2.041049
 ---------------------------------------------------------------------

 SCF Done:  E(RB3LYP) =  -1735.93645124     A.U. after   11 cycles

 The electronic state is 1-A.
 Alpha  occ. eigenvalues --  -89.12819 -88.98582 -19.15913 -19.15670 -19.11820
 Alpha  occ. eigenvalues --  -14.37301 -10.26197 -10.23442 -10.21585 -10.21519
 Alpha  occ. eigenvalues --  -10.21469 -10.21142 -10.20833 -10.20743 -10.20677
 Alpha  occ. eigenvalues --  -10.19663 -10.19322 -10.19004 -10.18995 -10.18844
 Alpha  occ. eigenvalues --  -10.18820 -10.18753 -10.18738  -8.15299  -8.03403
 Alpha  occ. eigenvalues --   -6.11803  -6.11749  -6.11575  -5.99821  -5.99616
 Alpha  occ. eigenvalues --   -5.99181  -1.12386  -1.01369  -1.00646  -0.94148
 Alpha  occ. eigenvalues --   -0.87761  -0.85652  -0.84426  -0.78935  -0.78126
 Alpha  occ. eigenvalues --   -0.76557  -0.74321  -0.73856  -0.69923  -0.69092
 Alpha  occ. eigenvalues --   -0.66418  -0.62617  -0.62337  -0.60569  -0.60232
 Alpha  occ. eigenvalues --   -0.57784  -0.56694  -0.54795  -0.52399  -0.51845
 Alpha  occ. eigenvalues --   -0.50562  -0.49241  -0.48215  -0.47544  -0.46203
 Alpha  occ. eigenvalues --   -0.46031  -0.45544  -0.45089  -0.44698  -0.44017
 Alpha  occ. eigenvalues --   -0.43391  -0.42404  -0.41771  -0.41512  -0.40356
 Alpha  occ. eigenvalues --   -0.38963  -0.38742  -0.38277  -0.38064  -0.37104
 Alpha  occ. eigenvalues --   -0.36532  -0.36367  -0.36340  -0.34907  -0.34115
 Alpha  occ. eigenvalues --   -0.33392  -0.33245  -0.32856  -0.31976  -0.31487
 Alpha  occ. eigenvalues --   -0.29032  -0.27073  -0.26776  -0.26299  -0.25171
 Alpha  occ. eigenvalues --   -0.24414  -0.23177
 Alpha virt. eigenvalues --   -0.04103  -0.02017  -0.00597  -0.00156   0.00926
 Alpha virt. eigenvalues --    0.03319   0.05221   0.06269   0.06803   0.08348
 Alpha virt. eigenvalues --    0.09389   0.09606   0.10468   0.11340   0.11984

 Mulliken charges:
               1
     1  O   -0.573676
     2  S    1.217999
     3  N   -0.738545
     4  C    0.218549
     5  C   -0.473830
     6  S    0.746612
     7  O   -0.686489
     8  C   -0.488488
     9  C   -0.312323
    10  C   -0.352850
    11  C    0.152357
    12  C   -0.187343
    13  C   -0.149431
    14  C   -0.153002
    15  C   -0.147714
    16  C   -0.204943
    17  C   -0.148079
    18  C   -0.137585
    19  C   -0.139054
    20  C   -0.126928
    21  C   -0.137081
    22  C   -0.144322
    23  O   -0.585079
    24  H    0.406992
    25  H    0.207418
    26  H    0.221728
    27  H    0.220614
    28  H    0.210065
    29  H    0.161070
    30  H    0.183258
    31  H    0.164772
    32  H    0.165478
    33  H    0.144801
    34  H    0.148414
    35  H    0.147685
    36  H    0.147644
    37  H    0.140324
    38  H    0.184355
    39  H    0.171358
    40  H    0.169544
    41  H    0.170309
    42  H    0.185414
 Sum of Mulliken charges =   0.00000

 Dipole moment (field-independent basis, Debye):
    X=              1.1271    Y=              5.2736    Z=              1.6576  Tot=              5.6417
 Quadrupole moment (field-independent basis, Debye-Ang):
   XX=           -172.2313   YY=           -139.3331   ZZ=           -141.1828
   XY=              8.4799   XZ=            -14.6302   YZ=            -12.1143

 Normal termination of Gaussian 09 at Sat Aug  8 02:36:04 2020.
