 Gaussian 09, Revision D.01,

 -----------------
 #p b3lyp/6-31G(d)
 -----------------

 ----------------
 SM37.n.3.pdb.xyz
 ----------------
 Symbolic Z-matrix:
 Charge =  0 Multiplicity = 1

 SCF Done:  E(RB3LYP) =  -1638.82713835     A.U. after   16 cycles
 Normal termination of Gaussian 09 at Sat Aug  8 02:41:45 2020.
 Gaussian 09:  AM64L-G09RevD.01 24-Apr-2013

 ----------------------------------------------------------------------
 #p b3lyp/6-31G(d) scrf=(iefpcm,read,solvent=Water) geom=allcheck guess
 =read
 ----------------------------------------------------------------------

 Structure from the checkpoint file:  "SM37.n.3.pdb.xyz.mst.n.w.chk"
 ----------------
 SM37.n.3.pdb.xyz
 ----------------
 Charge =  0 Multiplicity = 1

                         Standard orientation:
 ---------------------------------------------------------------------
 Center     Atomic      Atomic             Coordinates (Angstroms)
 Number     Number       Type             X           Y           Z
 ---------------------------------------------------------------------
      1          8           0        3.793304   -1.400041   -1.087306
      2         16           0        2.767830   -0.973900   -0.122470
      3          7           0        1.927435    0.218495   -0.903687
      4          6           0        0.793868    1.004556   -0.360364
      5          6           0        0.668048    2.287430   -1.224168
      6         16           0        0.943534    3.433231    0.223029
      7          8           0       -0.380168    4.044369    0.670307
      8          6           0        1.164092    1.733046    0.956952
      9          6           0       -0.503277    0.179583   -0.308417
     10          6           0       -1.744700    0.908247    0.238759
     11          6           0       -2.981677    0.043751    0.143819
     12          6           0       -3.309373   -0.858888    1.165226
     13          6           0       -4.435031   -1.678439    1.063795
     14          6           0       -5.255787   -1.606615   -0.063463
     15          6           0       -4.941490   -0.710209   -1.087442
     16          6           0       -3.814470    0.106708   -0.980892
     17          7           0        1.677443   -2.228067    0.206296
     18          6           0        1.231071   -2.939727   -0.999682
     19          6           0        2.135544   -3.143519    1.270516
     20          8           0        3.192898   -0.468574    1.187159
     21          1           0        1.849169    0.015554   -1.902548
     22          1           0       -0.311129    2.459098   -1.670589
     23          1           0        1.455309    2.412848   -1.969097
     24          1           0        0.479518    1.581526    1.790448
     25          1           0        2.191618    1.584108    1.280713
     26          1           0       -0.314545   -0.712817    0.293375
     27          1           0       -0.712032   -0.161791   -1.329711
     28          1           0       -1.907456    1.841570   -0.309437
     29          1           0       -1.575115    1.186093    1.283697
     30          1           0       -2.678843   -0.915836    2.047980
     31          1           0       -4.672888   -2.367490    1.868219
     32          1           0       -6.133213   -2.240709   -0.142365
     33          1           0       -5.575632   -0.641886   -1.964946
     34          1           0       -3.578009    0.806047   -1.778090
     35          1           0        0.858184   -2.228617   -1.736567
     36          1           0        0.406071   -3.592541   -0.707992
     37          1           0        2.026631   -3.544654   -1.449391
     38          1           0        2.409143   -2.566447    2.151446
     39          1           0        2.983918   -3.763127    0.954883
     40          1           0        1.294142   -3.794784    1.513652
 ---------------------------------------------------------------------

 SCF Done:  E(RB3LYP) =  -1638.85251531     A.U. after   11 cycles

 The electronic state is 1-A.
 Alpha  occ. eigenvalues --  -89.13973 -88.98651 -19.15636 -19.15477 -19.12032
 Alpha  occ. eigenvalues --  -14.37793 -14.37705 -10.26518 -10.22093 -10.21886
 Alpha  occ. eigenvalues --  -10.21799 -10.21376 -10.19771 -10.19274 -10.19050
 Alpha  occ. eigenvalues --  -10.19027 -10.19016 -10.18875 -10.18829 -10.18821
 Alpha  occ. eigenvalues --   -8.16170  -8.03476  -6.12645  -6.12595  -6.12582
 Alpha  occ. eigenvalues --   -5.99897  -5.99701  -5.99240  -1.13163  -1.01358
 Alpha  occ. eigenvalues --   -1.00787  -0.94838  -0.93647  -0.85773  -0.84414
 Alpha  occ. eigenvalues --   -0.79009  -0.74360  -0.73851  -0.72537  -0.71293
 Alpha  occ. eigenvalues --   -0.70235  -0.67458  -0.62680  -0.60491  -0.60436
 Alpha  occ. eigenvalues --   -0.58088  -0.56153  -0.54891  -0.52413  -0.51195
 Alpha  occ. eigenvalues --   -0.50561  -0.48440  -0.47837  -0.47678  -0.46539
 Alpha  occ. eigenvalues --   -0.45283  -0.44981  -0.44351  -0.43124  -0.42202
 Alpha  occ. eigenvalues --   -0.42009  -0.41813  -0.41316  -0.40737  -0.40300
 Alpha  occ. eigenvalues --   -0.40140  -0.38731  -0.38067  -0.37385  -0.35888
 Alpha  occ. eigenvalues --   -0.35311  -0.35007  -0.34796  -0.33833  -0.33708
 Alpha  occ. eigenvalues --   -0.32925  -0.32511  -0.31548  -0.29246  -0.27050
 Alpha  occ. eigenvalues --   -0.25765  -0.25204  -0.24524  -0.23174
 Alpha virt. eigenvalues --   -0.00315  -0.00236   0.00639   0.02258   0.04567
 Alpha virt. eigenvalues --    0.05862   0.07171   0.07982   0.08914   0.09257
 Alpha virt. eigenvalues --    0.10412   0.11081   0.11527   0.12331   0.12892

 Mulliken charges:
               1
     1  O   -0.569949
     2  S    1.301297
     3  N   -0.734284
     4  C    0.230834
     5  C   -0.498201
     6  S    0.768205
     7  O   -0.689721
     8  C   -0.502280
     9  C   -0.288131
    10  C   -0.375262
    11  C    0.160256
    12  C   -0.196142
    13  C   -0.150125
    14  C   -0.152254
    15  C   -0.149976
    16  C   -0.197968
    17  N   -0.515766
    18  C   -0.330824
    19  C   -0.324876
    20  O   -0.579783
    21  H    0.414736
    22  H    0.219121
    23  H    0.218946
    24  H    0.216767
    25  H    0.233766
    26  H    0.181753
    27  H    0.157221
    28  H    0.161827
    29  H    0.162531
    30  H    0.143713
    31  H    0.148711
    32  H    0.147849
    33  H    0.148812
    34  H    0.143060
    35  H    0.180470
    36  H    0.189950
    37  H    0.175160
    38  H    0.196342
    39  H    0.168075
    40  H    0.186142
 Sum of Mulliken charges =   0.00000

 Dipole moment (field-independent basis, Debye):
    X=             -2.6867    Y=             -5.5023    Z=             -3.5247  Tot=              7.0652
 Quadrupole moment (field-independent basis, Debye-Ang):
   XX=           -156.6476   YY=           -141.6408   ZZ=           -123.2123
   XY=             11.7505   XZ=              2.5560   YZ=            -12.0140

 Normal termination of Gaussian 09 at Sat Aug  8 02:46:38 2020.
