 Gaussian 09, Revision D.01,

 -----------------
 #p b3lyp/6-31G(d)
 -----------------

 ----------------
 SM37.n.7.pdb.xyz
 ----------------
 Symbolic Z-matrix:
 Charge =  0 Multiplicity = 1

 SCF Done:  E(RB3LYP) =  -1638.83185362     A.U. after   16 cycles
 Normal termination of Gaussian 09 at Sat Aug  8 02:42:47 2020.
 Gaussian 09:  AM64L-G09RevD.01 24-Apr-2013

 ----------------------------------------------------------------------
 #p b3lyp/6-31G(d) scrf=(iefpcm,read,solvent=Water) geom=allcheck guess
 =read
 ----------------------------------------------------------------------

 Structure from the checkpoint file:  "SM37.n.7.pdb.xyz.mst.n.w.chk"
 ----------------
 SM37.n.7.pdb.xyz
 ----------------
 Charge =  0 Multiplicity = 1

                         Standard orientation:
 ---------------------------------------------------------------------
 Center     Atomic      Atomic             Coordinates (Angstroms)
 Number     Number       Type             X           Y           Z
 ---------------------------------------------------------------------
      1          8           0        2.683279   -2.560843   -0.743489
      2         16           0        2.611170   -1.099461   -0.596978
      3          7           0        1.048537   -0.791236   -0.155829
      4          6           0        0.413045    0.519887    0.060592
      5          6           0        0.544121    1.529586   -1.106061
      6         16           0        0.663342    2.974085    0.071399
      7          8           0       -0.736457    3.500697    0.383334
      8          6           0        1.019489    1.472346    1.125056
      9          6           0       -1.065189    0.248663    0.394252
     10          6           0       -1.850141   -0.507916   -0.689818
     11          6           0       -3.308646   -0.665293   -0.323601
     12          6           0       -4.215208    0.387958   -0.511713
     13          6           0       -5.556832    0.252094   -0.150599
     14          6           0       -6.015416   -0.944856    0.405723
     15          6           0       -5.123549   -2.000399    0.597419
     16          6           0       -3.783212   -1.859429    0.234008
     17          7           0        3.581605   -0.560915    0.686882
     18          6           0        3.406216   -1.358266    1.911937
     19          6           0        5.002152   -0.397119    0.313116
     20          8           0        2.963403   -0.254257   -1.743026
     21          1           0        0.667997   -1.557320    0.400988
     22          1           0       -0.295391    1.607087   -1.796423
     23          1           0        1.485372    1.452267   -1.648092
     24          1           0        0.532759    1.505707    2.100694
     25          1           0        2.100876    1.381563    1.233257
     26          1           0       -1.525921    1.225003    0.573561
     27          1           0       -1.113444   -0.302541    1.341095
     28          1           0       -1.403338   -1.493877   -0.847005
     29          1           0       -1.763370    0.034091   -1.638650
     30          1           0       -3.867914    1.320720   -0.947625
     31          1           0       -6.243720    1.077418   -0.308932
     32          1           0       -7.059011   -1.052678    0.683807
     33          1           0       -5.470303   -2.936310    1.025158
     34          1           0       -3.092766   -2.686369    0.380227
     35          1           0        2.349922   -1.411462    2.173148
     36          1           0        3.932567   -0.841388    2.716711
     37          1           0        3.809573   -2.372510    1.812461
     38          1           0        5.071753    0.218756   -0.580765
     39          1           0        5.502593   -1.358873    0.140473
     40          1           0        5.495813    0.113473    1.141403
 ---------------------------------------------------------------------

 SCF Done:  E(RB3LYP) =  -1638.85528179     A.U. after   11 cycles

 The electronic state is 1-A.
 Alpha  occ. eigenvalues --  -89.14210 -88.98716 -19.15881 -19.15691 -19.11969
 Alpha  occ. eigenvalues --  -14.38052 -14.37941 -10.26619 -10.22209 -10.21989
 Alpha  occ. eigenvalues --  -10.21474 -10.21448 -10.19795 -10.19646 -10.19140
 Alpha  occ. eigenvalues --  -10.19043 -10.19017 -10.18879 -10.18851 -10.18839
 Alpha  occ. eigenvalues --   -8.16412  -8.03536  -6.12893  -6.12836  -6.12817
 Alpha  occ. eigenvalues --   -5.99955  -5.99750  -5.99314  -1.13387  -1.01583
 Alpha  occ. eigenvalues --   -1.00784  -0.95065  -0.93732  -0.85790  -0.84795
 Alpha  occ. eigenvalues --   -0.79213  -0.74376  -0.74304  -0.72572  -0.70831
 Alpha  occ. eigenvalues --   -0.70053  -0.67431  -0.62698  -0.61356  -0.60424
 Alpha  occ. eigenvalues --   -0.57945  -0.56502  -0.54889  -0.52268  -0.51517
 Alpha  occ. eigenvalues --   -0.50898  -0.48412  -0.48044  -0.47043  -0.46520
 Alpha  occ. eigenvalues --   -0.45761  -0.45018  -0.44393  -0.43336  -0.42518
 Alpha  occ. eigenvalues --   -0.42182  -0.41825  -0.41094  -0.40866  -0.40403
 Alpha  occ. eigenvalues --   -0.39273  -0.38806  -0.38710  -0.37416  -0.36242
 Alpha  occ. eigenvalues --   -0.35686  -0.35285  -0.34847  -0.34079  -0.33477
 Alpha  occ. eigenvalues --   -0.33172  -0.32416  -0.31718  -0.29297  -0.26694
 Alpha  occ. eigenvalues --   -0.26019  -0.25227  -0.24539  -0.23530
 Alpha virt. eigenvalues --   -0.00373  -0.00201   0.00687   0.03006   0.04911
 Alpha virt. eigenvalues --    0.06241   0.06580   0.07344   0.08811   0.09667
 Alpha virt. eigenvalues --    0.10198   0.10944   0.11817   0.12616   0.13312

 Mulliken charges:
               1
     1  O   -0.569374
     2  S    1.309911
     3  N   -0.734254
     4  C    0.230672
     5  C   -0.485795
     6  S    0.747844
     7  O   -0.687479
     8  C   -0.486217
     9  C   -0.319796
    10  C   -0.359322
    11  C    0.162952
    12  C   -0.196289
    13  C   -0.149972
    14  C   -0.152124
    15  C   -0.148764
    16  C   -0.201354
    17  N   -0.521308
    18  C   -0.332159
    19  C   -0.326562
    20  O   -0.578009
    21  H    0.410514
    22  H    0.211554
    23  H    0.231604
    24  H    0.211465
    25  H    0.225358
    26  H    0.182913
    27  H    0.164046
    28  H    0.162604
    29  H    0.160954
    30  H    0.143892
    31  H    0.149223
    32  H    0.148011
    33  H    0.148803
    34  H    0.143272
    35  H    0.179848
    36  H    0.191838
    37  H    0.176929
    38  H    0.196862
    39  H    0.169472
    40  H    0.188233
 Sum of Mulliken charges =   0.00000

 Dipole moment (field-independent basis, Debye):
    X=              2.6225    Y=             -2.3823    Z=              5.0248  Tot=              6.1483
 Quadrupole moment (field-independent basis, Debye-Ang):
   XX=           -119.1354   YY=           -153.0838   ZZ=           -132.0454
   XY=             12.2016   XZ=             16.3080   YZ=            -12.6914

 Normal termination of Gaussian 09 at Sat Aug  8 02:47:34 2020.
