 Gaussian 09, Revision D.01,

 -----------------
 #p b3lyp/6-31G(d)
 -----------------

 ----------------
 SM37.n.9.pdb.xyz
 ----------------
 Symbolic Z-matrix:
 Charge =  0 Multiplicity = 1

 SCF Done:  E(RB3LYP) =  -1638.83302810     A.U. after   16 cycles
 Normal termination of Gaussian 09 at Sat Aug  8 07:30:28 2020.
 Gaussian 09:  AM64L-G09RevD.01 24-Apr-2013

 ----------------------------------------------------------------------
 #p b3lyp/6-31G(d) scrf=(iefpcm,read,solvent=n-Octanol) geom=allcheck g
 uess=read
 ----------------------------------------------------------------------

 Structure from the checkpoint file:  "SM37.n.9.pdb.xyz.mst.n.o.chk"
 ----------------
 SM37.n.9.pdb.xyz
 ----------------
 Charge =  0 Multiplicity = 1

                         Standard orientation:
 ---------------------------------------------------------------------
 Center     Atomic      Atomic             Coordinates (Angstroms)
 Number     Number       Type             X           Y           Z
 ---------------------------------------------------------------------
      1          8           0       -2.531039    0.557097   -1.596620
      2         16           0       -2.737656   -0.641892   -0.775501
      3          7           0       -1.357831   -1.073518    0.065398
      4          6           0       -0.262068   -0.128055    0.356597
      5          6           0       -0.748644    1.166299    1.046718
      6         16           0        0.082651    2.283890   -0.198747
      7          8           0        1.359682    2.856149    0.406394
      8          6           0        0.383968    0.562877   -0.877626
      9          6           0        0.728554   -0.919639    1.226946
     10          6           0        2.028938   -0.169908    1.598095
     11          6           0        3.201338   -0.413015    0.667685
     12          6           0        3.794288    0.650660   -0.024756
     13          6           0        4.895094    0.434734   -0.856431
     14          6           0        5.418996   -0.848528   -1.010197
     15          6           0        4.835594   -1.916273   -0.324631
     16          6           0        3.737849   -1.697483    0.506399
     17          7           0       -3.734006   -0.150231    0.497757
     18          6           0       -4.902604    0.622669    0.048343
     19          6           0       -4.071701   -1.226886    1.441705
     20          8           0       -3.202086   -1.883149   -1.410394
     21          1           0       -1.037299   -1.966643   -0.297134
     22          1           0       -0.334145    1.342485    2.039980
     23          1           0       -1.828102    1.307597    1.056188
     24          1           0        1.447837    0.378404   -1.021077
     25          1           0       -0.177034    0.441064   -1.802257
     26          1           0        0.984755   -1.852662    0.710544
     27          1           0        0.186173   -1.202629    2.134572
     28          1           0        2.313606   -0.487539    2.607640
     29          1           0        1.838471    0.906697    1.649020
     30          1           0        3.367402    1.643798    0.088211
     31          1           0        5.341582    1.271018   -1.387641
     32          1           0        6.274894   -1.017235   -1.656642
     33          1           0        5.238416   -2.918446   -0.433812
     34          1           0        3.297432   -2.533889    1.042622
     35          1           0       -4.577875    1.411803   -0.626813
     36          1           0       -5.356076    1.075484    0.932128
     37          1           0       -5.653671   -0.001664   -0.451352
     38          1           0       -3.155181   -1.736097    1.737448
     39          1           0       -4.776344   -1.950427    1.014621
     40          1           0       -4.521981   -0.762324    2.321511
 ---------------------------------------------------------------------

 SCF Done:  E(RB3LYP) =  -1638.85867259     A.U. after   11 cycles

 The electronic state is 1-A.
 Alpha  occ. eigenvalues --  -89.13967 -88.98446 -19.15863 -19.15667 -19.11757
 Alpha  occ. eigenvalues --  -14.38136 -14.37907 -10.26548 -10.22396 -10.22355
 Alpha  occ. eigenvalues --  -10.21572 -10.21062 -10.20138 -10.19457 -10.18965
 Alpha  occ. eigenvalues --  -10.18897 -10.18749 -10.18688 -10.18667 -10.18069
 Alpha  occ. eigenvalues --   -8.16225  -8.03259  -6.12709  -6.12651  -6.12607
 Alpha  occ. eigenvalues --   -5.99678  -5.99483  -5.99029  -1.13304  -1.01561
 Alpha  occ. eigenvalues --   -1.00584  -0.95282  -0.94027  -0.85588  -0.84240
 Alpha  occ. eigenvalues --   -0.78882  -0.74371  -0.74086  -0.72955  -0.71517
 Alpha  occ. eigenvalues --   -0.70084  -0.67425  -0.62726  -0.60607  -0.60126
 Alpha  occ. eigenvalues --   -0.57676  -0.56301  -0.54198  -0.53028  -0.51420
 Alpha  occ. eigenvalues --   -0.50850  -0.48540  -0.48234  -0.47039  -0.46503
 Alpha  occ. eigenvalues --   -0.45205  -0.45072  -0.44354  -0.44165  -0.42188
 Alpha  occ. eigenvalues --   -0.41923  -0.41736  -0.41291  -0.41262  -0.40268
 Alpha  occ. eigenvalues --   -0.39532  -0.39121  -0.38582  -0.37178  -0.36246
 Alpha  occ. eigenvalues --   -0.35773  -0.35176  -0.34988  -0.33617  -0.33081
 Alpha  occ. eigenvalues --   -0.32923  -0.32702  -0.31581  -0.28921  -0.26532
 Alpha  occ. eigenvalues --   -0.26119  -0.24871  -0.24160  -0.23129
 Alpha virt. eigenvalues --   -0.00352   0.00035   0.00766   0.02472   0.05184
 Alpha virt. eigenvalues --    0.06028   0.06388   0.07101   0.08809   0.09292
 Alpha virt. eigenvalues --    0.10132   0.11074   0.11526   0.12446   0.13151

 Mulliken charges:
               1
     1  O   -0.571816
     2  S    1.343247
     3  N   -0.745642
     4  C    0.235327
     5  C   -0.507746
     6  S    0.760716
     7  O   -0.650145
     8  C   -0.505353
     9  C   -0.293702
    10  C   -0.390653
    11  C    0.149500
    12  C   -0.217151
    13  C   -0.140592
    14  C   -0.141917
    15  C   -0.140187
    16  C   -0.187056
    17  N   -0.522588
    18  C   -0.333377
    19  C   -0.327367
    20  O   -0.546067
    21  H    0.380939
    22  H    0.209472
    23  H    0.228594
    24  H    0.217593
    25  H    0.219084
    26  H    0.155513
    27  H    0.163317
    28  H    0.162769
    29  H    0.182415
    30  H    0.173932
    31  H    0.137908
    32  H    0.137064
    33  H    0.137651
    34  H    0.132370
    35  H    0.200784
    36  H    0.182571
    37  H    0.167483
    38  H    0.191964
    39  H    0.170477
    40  H    0.180670
 Sum of Mulliken charges =   0.00000

 Dipole moment (field-independent basis, Debye):
    X=             -2.7724    Y=             -3.5933    Z=              3.5605  Tot=              5.7685
 Quadrupole moment (field-independent basis, Debye-Ang):
   XX=           -124.0469   YY=           -141.5324   ZZ=           -133.5405
   XY=            -12.7866   XZ=            -18.3842   YZ=             -5.4103

 Normal termination of Gaussian 09 at Sat Aug  8 07:35:08 2020.
