 Gaussian 09, Revision D.01,

 -----------------
 #p b3lyp/6-31G(d)
 -----------------

 ----------------
 SM37.n.3.pdb.xyz
 ----------------
 Symbolic Z-matrix:
 Charge =  0 Multiplicity = 1

 SCF Done:  E(RB3LYP) =  -1638.82810004     A.U. after   16 cycles
 Normal termination of Gaussian 09 at Sat Aug  8 07:07:11 2020.
 Gaussian 09:  AM64L-G09RevD.01 24-Apr-2013

 ----------------------------------------------------------------------
 #p b3lyp/6-31G(d) scrf=(iefpcm,read,solvent=n-Octanol) geom=allcheck g
 uess=read
 ----------------------------------------------------------------------

 Structure from the checkpoint file:  "SM37.n.3.pdb.xyz.mst.n.o.chk"
 ----------------
 SM37.n.3.pdb.xyz
 ----------------
 Charge =  0 Multiplicity = 1

                         Standard orientation:
 ---------------------------------------------------------------------
 Center     Atomic      Atomic             Coordinates (Angstroms)
 Number     Number       Type             X           Y           Z
 ---------------------------------------------------------------------
      1          8           0        3.701802   -1.478788   -1.227663
      2         16           0        2.790399   -0.976661   -0.193688
      3          7           0        1.912709    0.206399   -0.962837
      4          6           0        0.792765    0.991691   -0.394511
      5          6           0        0.680562    2.305358   -1.210410
      6         16           0        0.951025    3.397824    0.286601
      7          8           0       -0.367467    3.984122    0.753191
      8          6           0        1.172118    1.663835    0.947317
      9          6           0       -0.513205    0.179743   -0.364189
     10          6           0       -1.747124    0.911801    0.194051
     11          6           0       -2.987284    0.049780    0.118284
     12          6           0       -3.267766   -0.898330    1.111064
     13          6           0       -4.397371   -1.711942    1.026121
     14          6           0       -5.269953   -1.588722   -0.056447
     15          6           0       -5.004962   -0.645957   -1.049914
     16          6           0       -3.872394    0.164763   -0.959788
     17          7           0        1.681012   -2.172831    0.275108
     18          6           0        1.207341   -2.992717   -0.845942
     19          6           0        2.114004   -2.974864    1.432400
     20          8           0        3.324850   -0.428641    1.053108
     21          1           0        1.824701    0.000972   -1.957227
     22          1           0       -0.295271    2.502006   -1.656545
     23          1           0        1.475658    2.451784   -1.943319
     24          1           0        0.486608    1.482021    1.774192
     25          1           0        2.199094    1.490642    1.261526
     26          1           0       -0.327497   -0.725332    0.221296
     27          1           0       -0.725579   -0.142976   -1.391525
     28          1           0       -1.914623    1.842823   -0.356105
     29          1           0       -1.562104    1.201950    1.232743
     30          1           0       -2.597536   -0.995437    1.960740
     31          1           0       -4.599184   -2.436914    1.809009
     32          1           0       -6.152490   -2.217663   -0.121310
     33          1           0       -5.680213   -0.536335   -1.892436
     34          1           0       -3.674444    0.901701   -1.732632
     35          1           0        0.851445   -2.353171   -1.653658
     36          1           0        0.365238   -3.587353   -0.489494
     37          1           0        1.983631   -3.660530   -1.235599
     38          1           0        2.428977   -2.310300    2.233714
     39          1           0        2.930796   -3.665493    1.184764
     40          1           0        1.250086   -3.556156    1.762070
 ---------------------------------------------------------------------

 SCF Done:  E(RB3LYP) =  -1638.85607623     A.U. after   11 cycles

 The electronic state is 1-A.
 Alpha  occ. eigenvalues --  -89.13927 -88.98744 -19.15583 -19.15376 -19.11839
 Alpha  occ. eigenvalues --  -14.38064 -14.37910 -10.26816 -10.22689 -10.22329
 Alpha  occ. eigenvalues --  -10.22139 -10.21542 -10.19740 -10.19668 -10.19261
 Alpha  occ. eigenvalues --  -10.19027 -10.19009 -10.18866 -10.18848 -10.18827
 Alpha  occ. eigenvalues --   -8.16125  -8.03555  -6.12601  -6.12550  -6.12535
 Alpha  occ. eigenvalues --   -5.99968  -5.99791  -5.99323  -1.13211  -1.01489
 Alpha  occ. eigenvalues --   -1.00944  -0.95019  -0.93946  -0.85792  -0.84539
 Alpha  occ. eigenvalues --   -0.79146  -0.74372  -0.73956  -0.73053  -0.71561
 Alpha  occ. eigenvalues --   -0.70532  -0.67656  -0.62855  -0.60738  -0.60515
 Alpha  occ. eigenvalues --   -0.58239  -0.56501  -0.55146  -0.52825  -0.51282
 Alpha  occ. eigenvalues --   -0.50679  -0.48644  -0.48093  -0.47955  -0.46979
 Alpha  occ. eigenvalues --   -0.45427  -0.45006  -0.44523  -0.43436  -0.42523
 Alpha  occ. eigenvalues --   -0.42209  -0.41918  -0.41426  -0.41233  -0.40498
 Alpha  occ. eigenvalues --   -0.40368  -0.39159  -0.38277  -0.37510  -0.35886
 Alpha  occ. eigenvalues --   -0.35230  -0.35125  -0.34974  -0.33963  -0.33750
 Alpha  occ. eigenvalues --   -0.32906  -0.32640  -0.31474  -0.29426  -0.26845
 Alpha  occ. eigenvalues --   -0.25878  -0.25078  -0.24430  -0.23004
 Alpha virt. eigenvalues --   -0.00245  -0.00111   0.00412   0.02170   0.04023
 Alpha virt. eigenvalues --    0.05810   0.06669   0.07681   0.08436   0.08875
 Alpha virt. eigenvalues --    0.10030   0.10730   0.11085   0.11782   0.12464

 Mulliken charges:
               1
     1  O   -0.547801
     2  S    1.310963
     3  N   -0.729872
     4  C    0.236631
     5  C   -0.504861
     6  S    0.763990
     7  O   -0.649306
     8  C   -0.514432
     9  C   -0.285351
    10  C   -0.375899
    11  C    0.169715
    12  C   -0.185265
    13  C   -0.138245
    14  C   -0.141620
    15  C   -0.138599
    16  C   -0.189631
    17  N   -0.519624
    18  C   -0.324129
    19  C   -0.323346
    20  O   -0.561162
    21  H    0.381689
    22  H    0.210350
    23  H    0.208346
    24  H    0.208341
    25  H    0.238176
    26  H    0.181969
    27  H    0.145429
    28  H    0.161288
    29  H    0.160514
    30  H    0.131362
    31  H    0.138841
    32  H    0.138270
    33  H    0.139171
    34  H    0.131490
    35  H    0.171443
    36  H    0.182139
    37  H    0.176837
    38  H    0.200279
    39  H    0.164567
    40  H    0.177345
 Sum of Mulliken charges =   0.00000

 Dipole moment (field-independent basis, Debye):
    X=             -2.5366    Y=             -4.8774    Z=             -2.5017  Tot=              6.0400
 Quadrupole moment (field-independent basis, Debye-Ang):
   XX=           -153.7239   YY=           -140.2225   ZZ=           -124.7836
   XY=             10.3798   XZ=              4.2440   YZ=            -12.6539

 Normal termination of Gaussian 09 at Sat Aug  8 07:11:48 2020.
