 Gaussian 09, Revision D.01,

 -----------------
 #p b3lyp/6-31G(d)
 -----------------

 ----------------
 SM37.n.6.pdb.xyz
 ----------------
 Symbolic Z-matrix:
 Charge =  0 Multiplicity = 1

 SCF Done:  E(RB3LYP) =  -1638.83313016     A.U. after   16 cycles
 Normal termination of Gaussian 09 at Sat Aug  8 07:19:33 2020.
 Gaussian 09:  AM64L-G09RevD.01 24-Apr-2013

 ----------------------------------------------------------------------
 #p b3lyp/6-31G(d) scrf=(iefpcm,read,solvent=n-Octanol) geom=allcheck g
 uess=read
 ----------------------------------------------------------------------

 Structure from the checkpoint file:  "SM37.n.6.pdb.xyz.mst.n.o.chk"
 ----------------
 SM37.n.6.pdb.xyz
 ----------------
 Charge =  0 Multiplicity = 1

                         Standard orientation:
 ---------------------------------------------------------------------
 Center     Atomic      Atomic             Coordinates (Angstroms)
 Number     Number       Type             X           Y           Z
 ---------------------------------------------------------------------
      1          8           0        3.347404   -1.678701   -1.697128
      2         16           0        2.905355   -0.690714   -0.705158
      3          7           0        1.238819   -0.819750   -0.675379
      4          6           0        0.352921    0.302965   -0.298331
      5          6           0        0.497701    1.592248   -1.152417
      6         16           0        0.852634    2.670065    0.335008
      7          8           0       -0.380467    3.470545    0.715448
      8          6           0        0.743571    0.944948    1.054820
      9          6           0       -1.065889   -0.296566   -0.306536
     10          6           0       -2.208725    0.669960    0.047313
     11          6           0       -3.545400   -0.038542    0.058836
     12          6           0       -4.022009   -0.653931    1.223070
     13          6           0       -5.240018   -1.333460    1.227387
     14          6           0       -6.004721   -1.407316    0.061844
     15          6           0       -5.542308   -0.796069   -1.104694
     16          6           0       -4.323855   -0.118423   -1.103158
     17          7           0        3.282961   -1.148868    0.874819
     18          6           0        2.925585   -2.539170    1.182440
     19          6           0        4.656741   -0.792846    1.273532
     20          8           0        3.348881    0.702741   -0.828838
     21          1           0        0.944324   -1.306609   -1.521612
     22          1           0       -0.405208    1.928928   -1.663147
     23          1           0        1.352779    1.594905   -1.826513
     24          1           0       -0.027002    0.906359    1.824904
     25          1           0        1.700496    0.616368    1.457792
     26          1           0       -1.070736   -1.138682    0.391790
     27          1           0       -1.257079   -0.714239   -1.304252
     28          1           0       -2.236174    1.493937   -0.671136
     29          1           0       -2.022411    1.125466    1.024418
     30          1           0       -3.435228   -0.594191    2.135332
     31          1           0       -5.594064   -1.799089    2.141571
     32          1           0       -6.954188   -1.932290    0.064207
     33          1           0       -6.131610   -0.842692   -2.014598
     34          1           0       -3.972689    0.361866   -2.012069
     35          1           0        1.894871   -2.718070    0.879215
     36          1           0        3.002463   -2.669369    2.263672
     37          1           0        3.586071   -3.259643    0.686314
     38          1           0        4.843845    0.249246    1.021333
     39          1           0        5.409439   -1.430807    0.793518
     40          1           0        4.723700   -0.920131    2.355087
 ---------------------------------------------------------------------

 SCF Done:  E(RB3LYP) =  -1638.86050536     A.U. after   11 cycles

 The electronic state is 1-A.
 Alpha  occ. eigenvalues --  -89.13970 -88.98286 -19.15847 -19.15641 -19.11322
 Alpha  occ. eigenvalues --  -14.38142 -14.37972 -10.26682 -10.22458 -10.22300
 Alpha  occ. eigenvalues --  -10.21438 -10.21256 -10.20342 -10.19840 -10.19400
 Alpha  occ. eigenvalues --  -10.19081 -10.19066 -10.18932 -10.18915 -10.18904
 Alpha  occ. eigenvalues --   -8.16233  -8.03078  -6.12717  -6.12658  -6.12615
 Alpha  occ. eigenvalues --   -5.99493  -5.99311  -5.98848  -1.13361  -1.01584
 Alpha  occ. eigenvalues --   -1.00392  -0.95298  -0.94041  -0.85867  -0.84236
 Alpha  occ. eigenvalues --   -0.79265  -0.74458  -0.74448  -0.72988  -0.71497
 Alpha  occ. eigenvalues --   -0.70241  -0.67485  -0.62518  -0.60618  -0.60576
 Alpha  occ. eigenvalues --   -0.58078  -0.56298  -0.54281  -0.53039  -0.51585
 Alpha  occ. eigenvalues --   -0.50667  -0.48689  -0.48302  -0.47688  -0.46490
 Alpha  occ. eigenvalues --   -0.45454  -0.45335  -0.44663  -0.43896  -0.42184
 Alpha  occ. eigenvalues --   -0.42129  -0.41972  -0.41289  -0.40855  -0.40303
 Alpha  occ. eigenvalues --   -0.40197  -0.39175  -0.38177  -0.37490  -0.36200
 Alpha  occ. eigenvalues --   -0.35367  -0.35197  -0.35034  -0.34320  -0.33663
 Alpha  occ. eigenvalues --   -0.33112  -0.33021  -0.31554  -0.28990  -0.26373
 Alpha  occ. eigenvalues --   -0.26038  -0.25176  -0.24501  -0.22784
 Alpha virt. eigenvalues --   -0.00281  -0.00252   0.01081   0.02590   0.05225
 Alpha virt. eigenvalues --    0.06066   0.06415   0.07158   0.08579   0.08928
 Alpha virt. eigenvalues --    0.09614   0.10772   0.11000   0.11745   0.12755

 Mulliken charges:
               1
     1  O   -0.546645
     2  S    1.345124
     3  N   -0.745923
     4  C    0.240952
     5  C   -0.497223
     6  S    0.760618
     7  O   -0.657315
     8  C   -0.512207
     9  C   -0.292948
    10  C   -0.374080
    11  C    0.165663
    12  C   -0.187456
    13  C   -0.139261
    14  C   -0.141300
    15  C   -0.138787
    16  C   -0.188139
    17  N   -0.523088
    18  C   -0.328706
    19  C   -0.332206
    20  O   -0.572874
    21  H    0.380698
    22  H    0.203439
    23  H    0.217671
    24  H    0.205145
    25  H    0.227695
    26  H    0.166307
    27  H    0.154779
    28  H    0.162462
    29  H    0.165820
    30  H    0.133054
    31  H    0.140099
    32  H    0.139293
    33  H    0.140144
    34  H    0.133862
    35  H    0.192493
    36  H    0.180305
    37  H    0.170283
    38  H    0.200800
    39  H    0.168091
    40  H    0.183362
 Sum of Mulliken charges =   0.00000

 Dipole moment (field-independent basis, Debye):
    X=             -0.2388    Y=             -5.5384    Z=              1.5752  Tot=              5.7630
 Quadrupole moment (field-independent basis, Debye-Ang):
   XX=           -131.4865   YY=           -150.3575   ZZ=           -125.7413
   XY=              3.1039   XZ=             17.9738   YZ=            -11.5032

 Normal termination of Gaussian 09 at Sat Aug  8 07:24:00 2020.
