 Gaussian 09, Revision D.01,

 -----------------
 #p b3lyp/6-31G(d)
 -----------------

 ----------------
 SM37.n.2.pdb.xyz
 ----------------
 Symbolic Z-matrix:
 Charge =  0 Multiplicity = 1

 SCF Done:  E(RB3LYP) =  -1638.82793457     A.U. after   16 cycles
 Normal termination of Gaussian 09 at Sat Aug  8 02:42:16 2020.
 Gaussian 09:  AM64L-G09RevD.01 24-Apr-2013

 ----------------------------------------------------------------------
 #p b3lyp/6-31G(d) scrf=(iefpcm,read,solvent=Water) geom=allcheck guess
 =read
 ----------------------------------------------------------------------

 Structure from the checkpoint file:  "SM37.n.2.pdb.xyz.mst.n.w.chk"
 ----------------
 SM37.n.2.pdb.xyz
 ----------------
 Charge =  0 Multiplicity = 1

                         Standard orientation:
 ---------------------------------------------------------------------
 Center     Atomic      Atomic             Coordinates (Angstroms)
 Number     Number       Type             X           Y           Z
 ---------------------------------------------------------------------
      1          8           0        0.528627    1.503178   -1.818159
      2         16           0       -0.135082    1.720739   -0.529184
      3          7           0        0.401876    0.533217    0.533939
      4          6           0        1.205645   -0.630775    0.090543
      5          6           0        1.885080   -1.290355    1.316770
      6         16           0        3.504237   -1.500502    0.410757
      7          8           0        3.515981   -2.838573   -0.323693
      8          6           0        2.542826   -0.242615   -0.583540
      9          6           0        0.464952   -1.673762   -0.774907
     10          6           0       -0.682208   -2.470697   -0.118060
     11          6           0       -2.022965   -1.775876    0.010591
     12          6           0       -2.788862   -1.477951   -1.125309
     13          6           0       -4.037560   -0.867644   -1.008500
     14          6           0       -4.549028   -0.547331    0.252530
     15          6           0       -3.801757   -0.847620    1.392488
     16          6           0       -2.552426   -1.459743    1.268658
     17          7           0        0.428970    3.196016    0.053806
     18          6           0       -0.119664    3.571324    1.367754
     19          6           0        1.886974    3.378393   -0.036996
     20          8           0       -1.597884    1.800130   -0.446155
     21          1           0       -0.350552    0.279321    1.175062
     22          1           0        1.476464   -2.231898    1.682734
     23          1           0        2.046037   -0.594932    2.142780
     24          1           0        2.626561   -0.390791   -1.659806
     25          1           0        2.905525    0.745271   -0.299378
     26          1           0        1.230384   -2.392661   -1.083977
     27          1           0        0.112459   -1.177279   -1.685176
     28          1           0       -0.368432   -2.822739    0.869413
     29          1           0       -0.819823   -3.370858   -0.727768
     30          1           0       -2.407086   -1.730194   -2.110297
     31          1           0       -4.615290   -0.646851   -1.900807
     32          1           0       -5.521496   -0.074725    0.343869
     33          1           0       -4.191247   -0.611075    2.377281
     34          1           0       -1.979469   -1.702307    2.158903
     35          1           0       -1.202074    3.456770    1.356119
     36          1           0        0.123535    4.620617    1.537654
     37          1           0        0.307561    2.972564    2.181481
     38          1           0        2.218225    3.151050   -1.048652
     39          1           0        2.430134    2.754644    0.684419
     40          1           0        2.096342    4.427688    0.178702
 ---------------------------------------------------------------------

 SCF Done:  E(RB3LYP) =  -1638.84989573     A.U. after   11 cycles

 The electronic state is 1-A.
 Alpha  occ. eigenvalues --  -89.13769 -88.98902 -19.15818 -19.15421 -19.12229
 Alpha  occ. eigenvalues --  -14.37777 -14.37188 -10.26399 -10.22019 -10.21955
 Alpha  occ. eigenvalues --  -10.21918 -10.21883 -10.19639 -10.19142 -10.19106
 Alpha  occ. eigenvalues --  -10.18907 -10.18874 -10.18725 -10.18707 -10.18603
 Alpha  occ. eigenvalues --   -8.15990  -8.03723  -6.12463  -6.12428  -6.12384
 Alpha  occ. eigenvalues --   -6.00141  -5.99940  -5.99498  -1.13112  -1.01588
 Alpha  occ. eigenvalues --   -1.01044  -0.94504  -0.93378  -0.85494  -0.84624
 Alpha  occ. eigenvalues --   -0.78789  -0.74229  -0.73640  -0.72549  -0.71075
 Alpha  occ. eigenvalues --   -0.70321  -0.67280  -0.63082  -0.60324  -0.60284
 Alpha  occ. eigenvalues --   -0.57949  -0.55990  -0.54263  -0.52070  -0.51303
 Alpha  occ. eigenvalues --   -0.50973  -0.49010  -0.48301  -0.46765  -0.45964
 Alpha  occ. eigenvalues --   -0.45301  -0.44629  -0.44233  -0.43290  -0.43124
 Alpha  occ. eigenvalues --   -0.41817  -0.41724  -0.40778  -0.40718  -0.40307
 Alpha  occ. eigenvalues --   -0.39303  -0.38747  -0.38187  -0.37663  -0.36330
 Alpha  occ. eigenvalues --   -0.35813  -0.35247  -0.34783  -0.33618  -0.33293
 Alpha  occ. eigenvalues --   -0.32846  -0.32503  -0.31467  -0.28851  -0.27072
 Alpha  occ. eigenvalues --   -0.25960  -0.25002  -0.24330  -0.23321
 Alpha virt. eigenvalues --   -0.00456  -0.00122   0.00038   0.02983   0.04825
 Alpha virt. eigenvalues --    0.05905   0.07568   0.08630   0.09186   0.09510
 Alpha virt. eigenvalues --    0.10578   0.11002   0.11260   0.11902   0.12842

 Mulliken charges:
               1
     1  O   -0.592434
     2  S    1.351807
     3  N   -0.754187
     4  C    0.210745
     5  C   -0.486873
     6  S    0.756112
     7  O   -0.685849
     8  C   -0.471917
     9  C   -0.279617
    10  C   -0.377183
    11  C    0.175106
    12  C   -0.188230
    13  C   -0.140488
    14  C   -0.151328
    15  C   -0.140835
    16  C   -0.221729
    17  N   -0.506473
    18  C   -0.335100
    19  C   -0.341191
    20  O   -0.565041
    21  H    0.389148
    22  H    0.217102
    23  H    0.217193
    24  H    0.216914
    25  H    0.208701
    26  H    0.166135
    27  H    0.169200
    28  H    0.157552
    29  H    0.170295
    30  H    0.142673
    31  H    0.146611
    32  H    0.145931
    33  H    0.146939
    34  H    0.142591
    35  H    0.190922
    36  H    0.189330
    37  H    0.170126
    38  H    0.196670
    39  H    0.169711
    40  H    0.190961
 Sum of Mulliken charges =   0.00000

 Dipole moment (field-independent basis, Debye):
    X=              0.7569    Y=              3.3753    Z=              6.3900  Tot=              7.2662
 Quadrupole moment (field-independent basis, Debye-Ang):
   XX=           -140.6530   YY=           -138.3388   ZZ=           -126.7073
   XY=             21.6729   XZ=              3.4222   YZ=              6.4358

 Normal termination of Gaussian 09 at Sat Aug  8 02:47:15 2020.
