 Gaussian 09, Revision D.01,

 -----------------
 #p b3lyp/6-31G(d)
 -----------------

 -----------------
 SM37.n.15.pdb.xyz
 -----------------
 Symbolic Z-matrix:
 Charge =  0 Multiplicity = 1

 SCF Done:  E(RB3LYP) =  -1638.83185700     A.U. after   16 cycles
 Normal termination of Gaussian 09 at Sat Aug  8 06:46:16 2020.
 Gaussian 09:  AM64L-G09RevD.01 24-Apr-2013

 ----------------------------------------------------------------------
 #p b3lyp/6-31G(d) scrf=(iefpcm,read,solvent=n-Octanol) geom=allcheck g
 uess=read
 ----------------------------------------------------------------------

 Structure from the checkpoint file:  "SM37.n.15.pdb.xyz.mst.n.o.chk"
 -----------------
 SM37.n.15.pdb.xyz
 -----------------
 Charge =  0 Multiplicity = 1

                         Standard orientation:
 ---------------------------------------------------------------------
 Center     Atomic      Atomic             Coordinates (Angstroms)
 Number     Number       Type             X           Y           Z
 ---------------------------------------------------------------------
      1          8           0        2.603939    0.668916   -1.246035
      2         16           0        2.918979    0.008436    0.030265
      3          7           0        1.452348   -0.531236    0.643461
      4          6           0        0.252446    0.331570    0.609409
      5          6           0       -0.305911    0.518598   -0.821464
      6         16           0       -0.312919    2.384567   -0.701103
      7          8           0       -1.722906    2.894291   -0.426013
      8          6           0        0.472351    1.844349    0.908060
      9          6           0       -0.738116   -0.322921    1.591023
     10          6           0       -2.165613    0.275980    1.598891
     11          6           0       -3.161016   -0.410460    0.683338
     12          6           0       -3.537633   -1.744040    0.897656
     13          6           0       -4.473273   -2.364895    0.070917
     14          6           0       -5.052630   -1.658813   -0.985354
     15          6           0       -4.688537   -0.331039   -1.206560
     16          6           0       -3.749633    0.287594   -0.377494
     17          7           0        3.657837   -1.487269   -0.138228
     18          6           0        3.082948   -2.328005   -1.194401
     19          6           0        5.127556   -1.451153   -0.139707
     20          8           0        3.710295    0.757988    1.014273
     21          1           0        1.617672   -0.951837    1.556376
     22          1           0       -1.312353    0.136290   -0.985039
     23          1           0        0.377848    0.206959   -1.607919
     24          1           0       -0.100748    2.240948    1.748058
     25          1           0        1.511110    2.166271    0.977247
     26          1           0       -0.303859   -0.227976    2.593142
     27          1           0       -0.784548   -1.393105    1.363737
     28          1           0       -2.128459    1.339616    1.339971
     29          1           0       -2.538533    0.216345    2.626782
     30          1           0       -3.100904   -2.299899    1.723216
     31          1           0       -4.753652   -3.398006    0.254028
     32          1           0       -5.781969   -2.141574   -1.629229
     33          1           0       -5.133745    0.227375   -2.024664
     34          1           0       -3.449701    1.317631   -0.548849
     35          1           0        1.999104   -2.342074   -1.090799
     36          1           0        3.462011   -3.341142   -1.052045
     37          1           0        3.353348   -1.982796   -2.198661
     38          1           0        5.477715   -0.840142    0.689588
     39          1           0        5.537936   -1.065429   -1.081151
     40          1           0        5.475221   -2.476119   -0.000704
 ---------------------------------------------------------------------

 SCF Done:  E(RB3LYP) =  -1638.85738866     A.U. after   11 cycles

 The electronic state is 1-A.
 Alpha  occ. eigenvalues --  -89.13867 -88.98415 -19.15590 -19.15564 -19.11707
 Alpha  occ. eigenvalues --  -14.38220 -14.37789 -10.26611 -10.22470 -10.22378
 Alpha  occ. eigenvalues --  -10.21652 -10.20972 -10.20316 -10.19461 -10.19089
 Alpha  occ. eigenvalues --  -10.18895 -10.18742 -10.18686 -10.18677 -10.18026
 Alpha  occ. eigenvalues --   -8.16137  -8.03235  -6.12605  -6.12572  -6.12524
 Alpha  occ. eigenvalues --   -5.99653  -5.99458  -5.99004  -1.13178  -1.01245
 Alpha  occ. eigenvalues --   -1.00568  -0.95501  -0.93980  -0.85574  -0.84221
 Alpha  occ. eigenvalues --   -0.78900  -0.74467  -0.74080  -0.73025  -0.71521
 Alpha  occ. eigenvalues --   -0.70260  -0.66973  -0.62880  -0.60637  -0.60129
 Alpha  occ. eigenvalues --   -0.57632  -0.56236  -0.54732  -0.52031  -0.51577
 Alpha  occ. eigenvalues --   -0.50858  -0.49110  -0.47744  -0.46998  -0.46520
 Alpha  occ. eigenvalues --   -0.45536  -0.45052  -0.44713  -0.44140  -0.42113
 Alpha  occ. eigenvalues --   -0.41765  -0.41598  -0.41289  -0.41207  -0.39936
 Alpha  occ. eigenvalues --   -0.39385  -0.39239  -0.38776  -0.37233  -0.36665
 Alpha  occ. eigenvalues --   -0.35406  -0.35281  -0.34872  -0.33840  -0.33214
 Alpha  occ. eigenvalues --   -0.32965  -0.32727  -0.31194  -0.28352  -0.26559
 Alpha  occ. eigenvalues --   -0.26147  -0.24850  -0.24171  -0.23168
 Alpha virt. eigenvalues --   -0.00373   0.00041   0.00824   0.02494   0.05218
 Alpha virt. eigenvalues --    0.05701   0.06569   0.07800   0.09073   0.09786
 Alpha virt. eigenvalues --    0.10185   0.10548   0.11786   0.12501   0.12973

 Mulliken charges:
               1
     1  O   -0.568621
     2  S    1.320080
     3  N   -0.731239
     4  C    0.243292
     5  C   -0.499367
     6  S    0.762564
     7  O   -0.651616
     8  C   -0.510714
     9  C   -0.312039
    10  C   -0.389258
    11  C    0.150974
    12  C   -0.185574
    13  C   -0.139199
    14  C   -0.142005
    15  C   -0.140842
    16  C   -0.219653
    17  N   -0.520792
    18  C   -0.326740
    19  C   -0.327266
    20  O   -0.549427
    21  H    0.376369
    22  H    0.218043
    23  H    0.223038
    24  H    0.209796
    25  H    0.222971
    26  H    0.157425
    27  H    0.169543
    28  H    0.182213
    29  H    0.162780
    30  H    0.131627
    31  H    0.137355
    32  H    0.136763
    33  H    0.137953
    34  H    0.176254
    35  H    0.193268
    36  H    0.180617
    37  H    0.171168
    38  H    0.201360
    39  H    0.167578
    40  H    0.181322
 Sum of Mulliken charges =   0.00000

 Dipole moment (field-independent basis, Debye):
    X=              2.5717    Y=             -7.0065    Z=              1.7241  Tot=              7.6602
 Quadrupole moment (field-independent basis, Debye-Ang):
   XX=           -133.9659   YY=           -135.9395   ZZ=           -127.6254
   XY=             -5.0033   XZ=             -1.3032   YZ=              3.7672

 Normal termination of Gaussian 09 at Sat Aug  8 06:50:56 2020.
