 Gaussian 09, Revision D.01,

 -----------------
 #p b3lyp/6-31G(d)
 -----------------

 -----------------
 SM37.n.14.pdb.xyz
 -----------------
 Symbolic Z-matrix:
 Charge =  0 Multiplicity = 1

 SCF Done:  E(RB3LYP) =  -1638.83442452     A.U. after   16 cycles
 Normal termination of Gaussian 09 at Sat Aug  8 02:42:26 2020.
 Gaussian 09:  AM64L-G09RevD.01 24-Apr-2013

 ----------------------------------------------------------------------
 #p b3lyp/6-31G(d) scrf=(iefpcm,read,solvent=Water) geom=allcheck guess
 =read
 ----------------------------------------------------------------------

 Structure from the checkpoint file:  "SM37.n.14.pdb.xyz.mst.n.w.chk"
 -----------------
 SM37.n.14.pdb.xyz
 -----------------
 Charge =  0 Multiplicity = 1

                         Standard orientation:
 ---------------------------------------------------------------------
 Center     Atomic      Atomic             Coordinates (Angstroms)
 Number     Number       Type             X           Y           Z
 ---------------------------------------------------------------------
      1          8           0        1.591356    2.474945   -0.328619
      2         16           0        0.238734    1.944549   -0.531830
      3          7           0        0.175862    0.465526    0.270367
      4          6           0        1.300687   -0.489235    0.243507
      5          6           0        2.517633   -0.042016    1.085435
      6         16           0        3.722109   -0.770995   -0.142673
      7          8           0        4.011272   -2.225323    0.222863
      8          6           0        2.104030   -0.661972   -1.072496
      9          6           0        0.791497   -1.845852    0.766795
     10          6           0       -0.231041   -2.602568   -0.103657
     11          6           0       -1.661013   -2.097165   -0.061975
     12          6           0       -2.330103   -1.739451   -1.241072
     13          6           0       -3.657230   -1.302064   -1.212260
     14          6           0       -4.338205   -1.215299    0.002689
     15          6           0       -3.684687   -1.568514    1.186177
     16          6           0       -2.360384   -2.006548    1.151655
     17          7           0       -0.824446    2.933018    0.294701
     18          6           0       -2.255357    2.658710    0.088240
     19          6           0       -0.462784    3.206940    1.694934
     20          8           0       -0.277186    1.826578   -1.902849
     21          1           0       -0.721262    0.021978    0.052839
     22          1           0        2.613508   -0.464050    2.086539
     23          1           0        2.658305    1.037312    1.091451
     24          1           0        1.897026   -1.542438   -1.681723
     25          1           0        2.140822    0.230502   -1.697080
     26          1           0        0.390021   -1.692990    1.774699
     27          1           0        1.682413   -2.472021    0.870948
     28          1           0       -0.221885   -3.644582    0.237908
     29          1           0        0.110207   -2.624053   -1.144115
     30          1           0       -1.802831   -1.806243   -2.188030
     31          1           0       -4.154402   -1.031681   -2.137429
     32          1           0       -5.368596   -0.877221    0.028194
     33          1           0       -4.207612   -1.508917    2.135653
     34          1           0       -1.862409   -2.282613    2.077070
     35          1           0       -2.444690    2.485776   -0.969448
     36          1           0       -2.807487    3.545298    0.404686
     37          1           0       -2.606010    1.799140    0.673108
     38          1           0        0.598092    3.446044    1.752524
     39          1           0       -0.688026    2.358749    2.352379
     40          1           0       -1.040394    4.075932    2.017396
 ---------------------------------------------------------------------

 SCF Done:  E(RB3LYP) =  -1638.85238069     A.U. after   11 cycles

 The electronic state is 1-A.
 Alpha  occ. eigenvalues --  -89.14184 -88.98732 -19.15991 -19.15872 -19.12029
 Alpha  occ. eigenvalues --  -14.38294 -14.37578 -10.26475 -10.22336 -10.22078
 Alpha  occ. eigenvalues --  -10.21722 -10.21284 -10.20306 -10.19734 -10.19596
 Alpha  occ. eigenvalues --  -10.19462 -10.19414 -10.19340 -10.19325 -10.19274
 Alpha  occ. eigenvalues --   -8.16424  -8.03556  -6.12880  -6.12858  -6.12834
 Alpha  occ. eigenvalues --   -5.99976  -5.99768  -5.99332  -1.13528  -1.01768
 Alpha  occ. eigenvalues --   -1.00851  -0.95222  -0.93830  -0.86137  -0.84693
 Alpha  occ. eigenvalues --   -0.79365  -0.74817  -0.74298  -0.72849  -0.71557
 Alpha  occ. eigenvalues --   -0.70139  -0.67471  -0.62786  -0.61410  -0.60788
 Alpha  occ. eigenvalues --   -0.58179  -0.56185  -0.54790  -0.52006  -0.51659
 Alpha  occ. eigenvalues --   -0.51410  -0.49182  -0.47908  -0.46999  -0.46275
 Alpha  occ. eigenvalues --   -0.45866  -0.45345  -0.44813  -0.43755  -0.43416
 Alpha  occ. eigenvalues --   -0.42234  -0.41712  -0.41016  -0.40700  -0.40149
 Alpha  occ. eigenvalues --   -0.39392  -0.39017  -0.38451  -0.38353  -0.36481
 Alpha  occ. eigenvalues --   -0.36427  -0.35749  -0.34978  -0.34175  -0.33632
 Alpha  occ. eigenvalues --   -0.33607  -0.32678  -0.31599  -0.28580  -0.27069
 Alpha  occ. eigenvalues --   -0.26312  -0.25593  -0.24905  -0.23585
 Alpha virt. eigenvalues --   -0.01074  -0.00703   0.00727   0.02976   0.04954
 Alpha virt. eigenvalues --    0.05781   0.07199   0.08033   0.09308   0.09395
 Alpha virt. eigenvalues --    0.09498   0.10893   0.11439   0.12171   0.13211

 Mulliken charges:
               1
     1  O   -0.598393
     2  S    1.336939
     3  N   -0.736972
     4  C    0.215379
     5  C   -0.472792
     6  S    0.750027
     7  O   -0.689848
     8  C   -0.488585
     9  C   -0.316195
    10  C   -0.358083
    11  C    0.108438
    12  C   -0.201965
    13  C   -0.137674
    14  C   -0.146914
    15  C   -0.143117
    16  C   -0.186380
    17  N   -0.516293
    18  C   -0.341425
    19  C   -0.328461
    20  O   -0.569270
    21  H    0.371389
    22  H    0.209335
    23  H    0.227472
    24  H    0.214665
    25  H    0.220726
    26  H    0.170300
    27  H    0.179391
    28  H    0.179289
    29  H    0.163569
    30  H    0.150910
    31  H    0.153520
    32  H    0.152392
    33  H    0.153689
    34  H    0.152391
    35  H    0.201156
    36  H    0.193884
    37  H    0.169331
    38  H    0.195411
    39  H    0.173295
    40  H    0.189470
 Sum of Mulliken charges =   0.00000

 Dipole moment (field-independent basis, Debye):
    X=             -7.2583    Y=              0.7446    Z=              3.8219  Tot=              8.2367
 Quadrupole moment (field-independent basis, Debye-Ang):
   XX=           -142.2334   YY=           -142.8006   ZZ=           -127.1033
   XY=              4.8296   XZ=             -2.7801   YZ=             11.9046

 Normal termination of Gaussian 09 at Sat Aug  8 02:47:35 2020.
