 Gaussian 09, Revision D.01,

 -----------------
 #p b3lyp/6-31G(d)
 -----------------

 ----------------
 SM37.n.1.pdb.xyz
 ----------------
 Symbolic Z-matrix:
 Charge =  0 Multiplicity = 1

 SCF Done:  E(RB3LYP) =  -1638.82863236     A.U. after   16 cycles
 Normal termination of Gaussian 09 at Sat Aug  8 02:42:08 2020.
 Gaussian 09:  AM64L-G09RevD.01 24-Apr-2013

 ----------------------------------------------------------------------
 #p b3lyp/6-31G(d) scrf=(iefpcm,read,solvent=Water) geom=allcheck guess
 =read
 ----------------------------------------------------------------------

 Structure from the checkpoint file:  "SM37.n.1.pdb.xyz.mst.n.w.chk"
 ----------------
 SM37.n.1.pdb.xyz
 ----------------
 Charge =  0 Multiplicity = 1

                         Standard orientation:
 ---------------------------------------------------------------------
 Center     Atomic      Atomic             Coordinates (Angstroms)
 Number     Number       Type             X           Y           Z
 ---------------------------------------------------------------------
      1          8           0       -1.466645   -1.282050   -1.233417
      2         16           0       -2.310374   -1.021962   -0.063439
      3          7           0       -1.832424    0.487416    0.533958
      4          6           0       -0.381961    0.809672    0.624753
      5          6           0       -0.268897    2.273971    1.122551
      6         16           0        0.530982    2.877199   -0.450252
      7          8           0        2.016141    3.144928   -0.212120
      8          6           0        0.229611    1.065040   -0.776001
      9          6           0        0.375016   -0.191231    1.515701
     10          6           0        1.893871    0.050297    1.696875
     11          6           0        2.793756   -0.631729    0.684113
     12          6           0        3.546511    0.116976   -0.230905
     13          6           0        4.396734   -0.513753   -1.143371
     14          6           0        4.507297   -1.904853   -1.155429
     15          6           0        3.761829   -2.660744   -0.246348
     16          6           0        2.916400   -2.028418    0.664006
     17          7           0       -3.871550   -0.789031   -0.603384
     18          6           0       -4.907530   -0.671435    0.434346
     19          6           0       -4.018111    0.165426   -1.712896
     20          8           0       -2.385144   -2.031697    1.002313
     21          1           0       -2.293481    0.635620    1.433572
     22          1           0        0.403968    2.425583    1.967153
     23          1           0       -1.218113    2.780174    1.300518
     24          1           0        1.172026    0.556788   -0.970955
     25          1           0       -0.457109    0.923576   -1.607449
     26          1           0        0.214239   -1.199150    1.124133
     27          1           0       -0.109030   -0.157197    2.498338
     28          1           0        2.159599   -0.315184    2.693871
     29          1           0        2.109487    1.122927    1.699453
     30          1           0        3.444204    1.198187   -0.230458
     31          1           0        4.971235    0.083616   -1.845073
     32          1           0        5.167645   -2.395393   -1.862601
     33          1           0        3.844205   -3.743994   -0.243867
     34          1           0        2.349468   -2.626423    1.373409
     35          1           0       -4.739095   -1.419843    1.205416
     36          1           0       -5.871712   -0.865297   -0.040610
     37          1           0       -4.935143    0.327963    0.886598
     38          1           0       -3.241989   -0.023637   -2.452867
     39          1           0       -3.960687    1.205739   -1.371862
     40          1           0       -4.993602   -0.011300   -2.170261
 ---------------------------------------------------------------------

 SCF Done:  E(RB3LYP) =  -1638.85253747     A.U. after   11 cycles

 The electronic state is 1-A.
 Alpha  occ. eigenvalues --  -89.13823 -88.98603 -19.15705 -19.15618 -19.12222
 Alpha  occ. eigenvalues --  -14.38067 -14.37234 -10.26244 -10.22170 -10.21974
 Alpha  occ. eigenvalues --  -10.21823 -10.21185 -10.19618 -10.19393 -10.19040
 Alpha  occ. eigenvalues --  -10.18960 -10.18881 -10.18781 -10.18712 -10.18319
 Alpha  occ. eigenvalues --   -8.16071  -8.03452  -6.12520  -6.12504  -6.12488
 Alpha  occ. eigenvalues --   -5.99878  -5.99671  -5.99215  -1.13216  -1.01510
 Alpha  occ. eigenvalues --   -1.00819  -0.94946  -0.93547  -0.85613  -0.84039
 Alpha  occ. eigenvalues --   -0.78771  -0.74231  -0.73836  -0.72715  -0.71334
 Alpha  occ. eigenvalues --   -0.70347  -0.67089  -0.62871  -0.60472  -0.59905
 Alpha  occ. eigenvalues --   -0.57939  -0.55921  -0.54614  -0.51706  -0.51379
 Alpha  occ. eigenvalues --   -0.50944  -0.48689  -0.48025  -0.46687  -0.46435
 Alpha  occ. eigenvalues --   -0.45011  -0.44939  -0.44478  -0.43094  -0.42361
 Alpha  occ. eigenvalues --   -0.41739  -0.41601  -0.41140  -0.40915  -0.40563
 Alpha  occ. eigenvalues --   -0.39528  -0.38910  -0.38572  -0.37075  -0.36558
 Alpha  occ. eigenvalues --   -0.35635  -0.35018  -0.34693  -0.33606  -0.33406
 Alpha  occ. eigenvalues --   -0.32994  -0.32498  -0.31398  -0.28546  -0.27107
 Alpha  occ. eigenvalues --   -0.26317  -0.25078  -0.24349  -0.23219
 Alpha virt. eigenvalues --   -0.00494  -0.00154   0.00663   0.02128   0.04916
 Alpha virt. eigenvalues --    0.05581   0.07225   0.08407   0.09793   0.10196
 Alpha virt. eigenvalues --    0.10254   0.10993   0.11877   0.12777   0.13041

 Mulliken charges:
               1
     1  O   -0.594166
     2  S    1.346909
     3  N   -0.736428
     4  C    0.207058
     5  C   -0.498804
     6  S    0.765160
     7  O   -0.681898
     8  C   -0.484971
     9  C   -0.289214
    10  C   -0.376871
    11  C    0.151311
    12  C   -0.221508
    13  C   -0.151616
    14  C   -0.152621
    15  C   -0.150068
    16  C   -0.194219
    17  N   -0.516610
    18  C   -0.335030
    19  C   -0.327835
    20  O   -0.578362
    21  H    0.400066
    22  H    0.221790
    23  H    0.218659
    24  H    0.219882
    25  H    0.219919
    26  H    0.178589
    27  H    0.160719
    28  H    0.169128
    29  H    0.162929
    30  H    0.165757
    31  H    0.147048
    32  H    0.147063
    33  H    0.147931
    34  H    0.144045
    35  H    0.199144
    36  H    0.190529
    37  H    0.171237
    38  H    0.194774
    39  H    0.172572
    40  H    0.188001
 Sum of Mulliken charges =   0.00000

 Dipole moment (field-independent basis, Debye):
    X=             -7.1866    Y=              2.5826    Z=              2.6444  Tot=              8.0814
 Quadrupole moment (field-independent basis, Debye-Ang):
   XX=           -117.2924   YY=           -148.2284   ZZ=           -124.6885
   XY=            -23.4404   XZ=             -2.7728   YZ=              3.6453

 Normal termination of Gaussian 09 at Sat Aug  8 02:47:07 2020.
