 Gaussian 09, Revision D.01,

 -----------------
 #p b3lyp/6-31G(d)
 -----------------

 -----------------
 SM37.n.10.pdb.xyz
 -----------------
 Symbolic Z-matrix:
 Charge =  0 Multiplicity = 1

 SCF Done:  E(RB3LYP) =  -1638.82683827     A.U. after   16 cycles
 Normal termination of Gaussian 09 at Sat Aug  8 02:41:27 2020.
 Gaussian 09:  AM64L-G09RevD.01 24-Apr-2013

 ----------------------------------------------------------------------
 #p b3lyp/6-31G(d) scrf=(iefpcm,read,solvent=Water) geom=allcheck guess
 =read
 ----------------------------------------------------------------------

 Structure from the checkpoint file:  "SM37.n.10.pdb.xyz.mst.n.w.chk"
 -----------------
 SM37.n.10.pdb.xyz
 -----------------
 Charge =  0 Multiplicity = 1

                         Standard orientation:
 ---------------------------------------------------------------------
 Center     Atomic      Atomic             Coordinates (Angstroms)
 Number     Number       Type             X           Y           Z
 ---------------------------------------------------------------------
      1          8           0       -4.110211    0.375638   -0.525367
      2         16           0       -2.700630   -0.041584   -0.573588
      3          7           0       -1.886993    1.127285    0.271103
      4          6           0       -0.418174    1.202528    0.459371
      5          6           0       -0.092894    2.643243    0.934980
      6         16           0        1.028786    3.001545   -0.511896
      7          8           0        2.487299    2.905297   -0.068352
      8          6           0        0.339089    1.309525   -0.889222
      9          6           0        0.102461    0.128525    1.429454
     10          6           0        1.633916    0.104388    1.648159
     11          6           0        2.400427   -0.834540    0.734480
     12          6           0        3.366976   -0.343580   -0.154047
     13          6           0        4.094088   -1.210906   -0.973545
     14          6           0        3.866583   -2.586032   -0.917558
     15          6           0        2.905624   -3.087473   -0.034768
     16          6           0        2.182889   -2.219481    0.782201
     17          7           0       -2.477699   -1.510677    0.240284
     18          6           0       -3.204735   -1.586371    1.514611
     19          6           0       -2.694994   -2.698595   -0.607751
     20          8           0       -2.047612   -0.206859   -1.876545
     21          1           0       -2.424468    1.436606    1.077368
     22          1           0        0.457995    2.715577    1.873701
     23          1           0       -0.944444    3.325020    0.937609
     24          1           0        1.138430    0.587264   -1.041481
     25          1           0       -0.308406    1.353311   -1.762925
     26          1           0       -0.241728   -0.848016    1.082050
     27          1           0       -0.395518    0.312636    2.388917
     28          1           0        1.812401   -0.202373    2.684752
     29          1           0        2.049456    1.112192    1.546102
     30          1           0        3.529087    0.729961   -0.203721
     31          1           0        4.837134   -0.809914   -1.655775
     32          1           0        4.429817   -3.261291   -1.552994
     33          1           0        2.723036   -4.157114    0.020428
     34          1           0        1.444334   -2.622009    1.470216
     35          1           0       -2.978888   -0.716925    2.133894
     36          1           0       -2.852935   -2.476636    2.041248
     37          1           0       -4.289585   -1.657634    1.374696
     38          1           0       -2.104049   -2.608278   -1.516755
     39          1           0       -3.751814   -2.843354   -0.866366
     40          1           0       -2.350870   -3.564671   -0.039006
 ---------------------------------------------------------------------

 SCF Done:  E(RB3LYP) =  -1638.85041689     A.U. after   11 cycles

 The electronic state is 1-A.
 Alpha  occ. eigenvalues --  -89.13927 -88.98716 -19.15631 -19.15457 -19.12310
 Alpha  occ. eigenvalues --  -14.37683 -14.37641 -10.26358 -10.22100 -10.21873
 Alpha  occ. eigenvalues --  -10.21868 -10.21233 -10.19541 -10.19010 -10.18934
 Alpha  occ. eigenvalues --  -10.18837 -10.18745 -10.18717 -10.18661 -10.18274
 Alpha  occ. eigenvalues --   -8.16126  -8.03556  -6.12598  -6.12550  -6.12541
 Alpha  occ. eigenvalues --   -5.99981  -5.99773  -5.99320  -1.13131  -1.01361
 Alpha  occ. eigenvalues --   -1.00963  -0.94763  -0.93631  -0.85590  -0.84348
 Alpha  occ. eigenvalues --   -0.78627  -0.74189  -0.73745  -0.72474  -0.71156
 Alpha  occ. eigenvalues --   -0.70225  -0.67390  -0.62732  -0.60610  -0.60009
 Alpha  occ. eigenvalues --   -0.57853  -0.56082  -0.54907  -0.52254  -0.51087
 Alpha  occ. eigenvalues --   -0.50876  -0.48457  -0.47800  -0.46590  -0.46428
 Alpha  occ. eigenvalues --   -0.45019  -0.44856  -0.44491  -0.43134  -0.42253
 Alpha  occ. eigenvalues --   -0.41967  -0.41666  -0.41144  -0.40698  -0.40349
 Alpha  occ. eigenvalues --   -0.39930  -0.38630  -0.38374  -0.37262  -0.35892
 Alpha  occ. eigenvalues --   -0.35307  -0.35205  -0.34633  -0.33733  -0.32910
 Alpha  occ. eigenvalues --   -0.32713  -0.32252  -0.31545  -0.29188  -0.27168
 Alpha  occ. eigenvalues --   -0.25645  -0.25044  -0.24311  -0.23369
 Alpha virt. eigenvalues --   -0.00452  -0.00093   0.00420   0.02201   0.04635
 Alpha virt. eigenvalues --    0.05773   0.07225   0.07966   0.08951   0.10307
 Alpha virt. eigenvalues --    0.10617   0.11820   0.12083   0.12791   0.13022

 Mulliken charges:
               1
     1  O   -0.568868
     2  S    1.302098
     3  N   -0.731357
     4  C    0.227060
     5  C   -0.497347
     6  S    0.769168
     7  O   -0.677223
     8  C   -0.500313
     9  C   -0.292329
    10  C   -0.382502
    11  C    0.149340
    12  C   -0.220116
    13  C   -0.151163
    14  C   -0.153416
    15  C   -0.150516
    16  C   -0.192180
    17  N   -0.515449
    18  C   -0.329760
    19  C   -0.324306
    20  O   -0.581795
    21  H    0.414029
    22  H    0.221266
    23  H    0.219866
    24  H    0.220290
    25  H    0.229282
    26  H    0.187461
    27  H    0.154673
    28  H    0.165999
    29  H    0.169038
    30  H    0.163690
    31  H    0.146645
    32  H    0.146573
    33  H    0.147069
    34  H    0.142215
    35  H    0.180472
    36  H    0.188968
    37  H    0.174650
    38  H    0.196026
    39  H    0.167486
    40  H    0.185276
 Sum of Mulliken charges =   0.00000

 Dipole moment (field-independent basis, Debye):
    X=             -2.9738    Y=             -3.1593    Z=              5.8784  Tot=              7.3062
 Quadrupole moment (field-independent basis, Debye-Ang):
   XX=           -156.1747   YY=           -123.3712   ZZ=           -128.5233
   XY=             -4.0962   XZ=            -17.7404   YZ=              3.7348

 Normal termination of Gaussian 09 at Sat Aug  8 02:46:46 2020.
