 Gaussian 09, Revision D.01,

 -----------------
 #p b3lyp/6-31G(d)
 -----------------

 ----------------
 SM37.n.8.pdb.xyz
 ----------------
 Symbolic Z-matrix:
 Charge =  0 Multiplicity = 1

 SCF Done:  E(RB3LYP) =  -1638.83651678     A.U. after   16 cycles
 Normal termination of Gaussian 09 at Sat Aug  8 07:29:16 2020.
 Gaussian 09:  AM64L-G09RevD.01 24-Apr-2013

 ----------------------------------------------------------------------
 #p b3lyp/6-31G(d) scrf=(iefpcm,read,solvent=n-Octanol) geom=allcheck g
 uess=read
 ----------------------------------------------------------------------

 Structure from the checkpoint file:  "SM37.n.8.pdb.xyz.mst.n.o.chk"
 ----------------
 SM37.n.8.pdb.xyz
 ----------------
 Charge =  0 Multiplicity = 1

                         Standard orientation:
 ---------------------------------------------------------------------
 Center     Atomic      Atomic             Coordinates (Angstroms)
 Number     Number       Type             X           Y           Z
 ---------------------------------------------------------------------
      1          8           0        3.072424   -1.896426   -1.555450
      2         16           0        2.770712   -0.808872   -0.616107
      3          7           0        1.121953   -0.571554   -0.745607
      4          6           0        0.468643    0.713374   -0.441269
      5          6           0        0.882874    1.948465   -1.281251
      6         16           0        0.757304    3.073589    0.208615
      7          8           0       -0.663628    3.597775    0.337705
      8          6           0        0.855357    1.340981    0.916327
      9          6           0       -1.047869    0.498200   -0.557112
     10          6           0       -1.623547   -0.565978    0.387544
     11          6           0       -3.121943   -0.710201    0.237473
     12          6           0       -3.667706   -1.770237   -0.496409
     13          6           0       -5.048124   -1.895340   -0.659573
     14          6           0       -5.907083   -0.956848   -0.087594
     15          6           0       -5.375972    0.104333    0.648532
     16          6           0       -3.996446    0.224513    0.808383
     17          7           0        2.888359   -1.290472    0.996771
     18          6           0        2.229356   -2.574510    1.269095
     19          6           0        4.260088   -1.214162    1.531774
     20          8           0        3.522166    0.449395   -0.708427
     21          1           0        0.801251   -1.002037   -1.613373
     22          1           0        0.220855    2.243747   -2.095834
     23          1           0        1.924743    1.922020   -1.598611
     24          1           0        0.179208    1.176895    1.755115
     25          1           0        1.886951    1.149509    1.207308
     26          1           0       -1.282431    0.234621   -1.596438
     27          1           0       -1.518304    1.468039   -0.366340
     28          1           0       -1.377386   -0.298664    1.421820
     29          1           0       -1.138519   -1.524997    0.185822
     30          1           0       -3.001413   -2.506520   -0.938416
     31          1           0       -5.450421   -2.725737   -1.229957
     32          1           0       -6.981015   -1.052088   -0.211051
     33          1           0       -6.037182    0.837742    1.100683
     34          1           0       -3.591896    1.052517    1.385339
     35          1           0        1.219716   -2.550993    0.863149
     36          1           0        2.169464   -2.693448    2.352952
     37          1           0        2.775450   -3.423984    0.844713
     38          1           0        4.684431   -0.239075    1.298108
     39          1           0        4.909931   -2.004549    1.134736
     40          1           0        4.192678   -1.325791    2.615851
 ---------------------------------------------------------------------

 SCF Done:  E(RB3LYP) =  -1638.86284346     A.U. after   11 cycles

 The electronic state is 1-A.
 Alpha  occ. eigenvalues --  -89.13952 -88.98694 -19.15758 -19.15583 -19.11694
 Alpha  occ. eigenvalues --  -14.38082 -14.37991 -10.26558 -10.22448 -10.22299
 Alpha  occ. eigenvalues --  -10.21851 -10.21439 -10.19754 -10.19726 -10.19346
 Alpha  occ. eigenvalues --  -10.19007 -10.18997 -10.18859 -10.18848 -10.18809
 Alpha  occ. eigenvalues --   -8.16205  -8.03508  -6.12691  -6.12631  -6.12587
 Alpha  occ. eigenvalues --   -5.99918  -5.99731  -5.99288  -1.13275  -1.01489
 Alpha  occ. eigenvalues --   -1.00835  -0.95264  -0.94000  -0.85764  -0.84730
 Alpha  occ. eigenvalues --   -0.79289  -0.74377  -0.74297  -0.72944  -0.71408
 Alpha  occ. eigenvalues --   -0.70082  -0.67448  -0.62636  -0.60965  -0.60429
 Alpha  occ. eigenvalues --   -0.58021  -0.56706  -0.54254  -0.52653  -0.51426
 Alpha  occ. eigenvalues --   -0.51241  -0.48692  -0.48449  -0.47278  -0.46137
 Alpha  occ. eigenvalues --   -0.45793  -0.45030  -0.44356  -0.43660  -0.42545
 Alpha  occ. eigenvalues --   -0.42062  -0.41970  -0.41469  -0.41224  -0.40457
 Alpha  occ. eigenvalues --   -0.39352  -0.39151  -0.38673  -0.37384  -0.36376
 Alpha  occ. eigenvalues --   -0.35813  -0.35246  -0.34908  -0.34119  -0.33583
 Alpha  occ. eigenvalues --   -0.33024  -0.32979  -0.31499  -0.28934  -0.26506
 Alpha  occ. eigenvalues --   -0.26111  -0.25098  -0.24414  -0.23192
 Alpha virt. eigenvalues --   -0.00281  -0.00073   0.00594   0.03143   0.04805
 Alpha virt. eigenvalues --    0.06374   0.06672   0.07422   0.08370   0.09330
 Alpha virt. eigenvalues --    0.09778   0.10488   0.11166   0.11527   0.13115

 Mulliken charges:
               1
     1  O   -0.548247
     2  S    1.349146
     3  N   -0.739451
     4  C    0.216191
     5  C   -0.484680
     6  S    0.743630
     7  O   -0.650565
     8  C   -0.482618
     9  C   -0.309911
    10  C   -0.361390
    11  C    0.169367
    12  C   -0.193709
    13  C   -0.138333
    14  C   -0.141749
    15  C   -0.139605
    16  C   -0.186639
    17  N   -0.522148
    18  C   -0.332088
    19  C   -0.332463
    20  O   -0.577656
    21  H    0.379584
    22  H    0.200830
    23  H    0.222381
    24  H    0.202243
    25  H    0.220336
    26  H    0.151663
    27  H    0.191050
    28  H    0.153345
    29  H    0.159665
    30  H    0.131930
    31  H    0.139282
    32  H    0.138779
    33  H    0.140284
    34  H    0.137253
    35  H    0.193803
    36  H    0.180303
    37  H    0.170339
    38  H    0.199659
    39  H    0.167351
    40  H    0.182836
 Sum of Mulliken charges =   0.00000

 Dipole moment (field-independent basis, Debye):
    X=              0.1895    Y=             -4.1892    Z=              1.9397  Tot=              4.6203
 Quadrupole moment (field-independent basis, Debye-Ang):
   XX=           -135.4986   YY=           -145.8652   ZZ=           -127.5870
   XY=              4.6338   XZ=             15.3931   YZ=             -6.2928

 Normal termination of Gaussian 09 at Sat Aug  8 07:33:49 2020.
