 Gaussian 09, Revision D.01,

 -----------------
 #p b3lyp/6-31G(d)
 -----------------

 ----------------
 SM37.n.5.pdb.xyz
 ----------------
 Symbolic Z-matrix:
 Charge =  0 Multiplicity = 1

 SCF Done:  E(RB3LYP) =  -1638.83646930     A.U. after   16 cycles
 Normal termination of Gaussian 09 at Sat Aug  8 07:18:07 2020.
 Gaussian 09:  AM64L-G09RevD.01 24-Apr-2013

 ----------------------------------------------------------------------
 #p b3lyp/6-31G(d) scrf=(iefpcm,read,solvent=n-Octanol) geom=allcheck g
 uess=read
 ----------------------------------------------------------------------

 Structure from the checkpoint file:  "SM37.n.5.pdb.xyz.mst.n.o.chk"
 ----------------
 SM37.n.5.pdb.xyz
 ----------------
 Charge =  0 Multiplicity = 1

                         Standard orientation:
 ---------------------------------------------------------------------
 Center     Atomic      Atomic             Coordinates (Angstroms)
 Number     Number       Type             X           Y           Z
 ---------------------------------------------------------------------
      1          8           0       -3.519116    0.441748   -0.755737
      2         16           0       -2.771102   -0.814200   -0.623319
      3          7           0       -1.117368   -0.583355   -0.723424
      4          6           0       -0.465848    0.704293   -0.435128
      5          6           0       -0.833523    1.334533    0.921936
      6         16           0       -0.740779    3.064285    0.210919
      7          8           0        0.686128    3.577724    0.312472
      8          6           0       -0.899664    1.931522   -1.277755
      9          6           0        1.050399    0.492154   -0.563656
     10          6           0        1.628687   -0.577462    0.375976
     11          6           0        3.127528   -0.714904    0.233360
     12          6           0        3.996137    0.227633    0.801684
     13          6           0        5.377340    0.111935    0.647692
     14          6           0        5.915916   -0.952099   -0.079343
     15          6           0        5.062105   -1.897763   -0.648172
     16          6           0        3.680633   -1.777156   -0.490889
     17          7           0       -2.923327   -1.258713    0.998343
     18          6           0       -4.302913   -1.154654    1.501333
     19          6           0       -2.272751   -2.535728    1.330744
     20          8           0       -3.054173   -1.921752   -1.546895
     21          1           0       -0.783608   -1.028684   -1.577865
     22          1           0       -0.146028    1.171647    1.752327
     23          1           0       -1.859897    1.146340    1.231918
     24          1           0       -0.258487    2.223985   -2.110261
     25          1           0       -1.950833    1.896660   -1.562216
     26          1           0        1.518497    1.462139   -0.370191
     27          1           0        1.278090    0.232625   -1.605161
     28          1           0        1.148808   -1.538004    0.168980
     29          1           0        1.376351   -0.316495    1.411190
     30          1           0        3.586456    1.057935    1.370741
     31          1           0        6.032710    0.850259    1.097502
     32          1           0        6.990293   -1.044303   -0.197184
     33          1           0        5.470079   -2.730705   -1.211303
     34          1           0        3.020421   -2.518937   -0.930471
     35          1           0       -4.715464   -0.186481    1.226117
     36          1           0       -4.261189   -1.229845    2.588928
     37          1           0       -4.951785   -1.952773    1.119061
     38          1           0       -1.253841   -2.526409    0.943292
     39          1           0       -2.815211   -3.398178    0.924306
     40          1           0       -2.237380   -2.613241    2.418850
 ---------------------------------------------------------------------

 SCF Done:  E(RB3LYP) =  -1638.86267510     A.U. after   11 cycles

 The electronic state is 1-A.
 Alpha  occ. eigenvalues --  -89.13977 -88.98692 -19.15811 -19.15599 -19.11697
 Alpha  occ. eigenvalues --  -14.38078 -14.37989 -10.26508 -10.22378 -10.22376
 Alpha  occ. eigenvalues --  -10.21824 -10.21404 -10.19745 -10.19708 -10.19361
 Alpha  occ. eigenvalues --  -10.19002 -10.18991 -10.18853 -10.18830 -10.18807
 Alpha  occ. eigenvalues --   -8.16225  -8.03505  -6.12710  -6.12650  -6.12607
 Alpha  occ. eigenvalues --   -5.99915  -5.99727  -5.99287  -1.13265  -1.01508
 Alpha  occ. eigenvalues --   -1.00850  -0.95252  -0.93990  -0.85748  -0.84712
 Alpha  occ. eigenvalues --   -0.79267  -0.74374  -0.74280  -0.72940  -0.71411
 Alpha  occ. eigenvalues --   -0.70045  -0.67421  -0.62674  -0.60971  -0.60423
 Alpha  occ. eigenvalues --   -0.58020  -0.56699  -0.54231  -0.52646  -0.51436
 Alpha  occ. eigenvalues --   -0.51236  -0.48677  -0.48451  -0.47258  -0.46127
 Alpha  occ. eigenvalues --   -0.45802  -0.45047  -0.44363  -0.43646  -0.42547
 Alpha  occ. eigenvalues --   -0.42069  -0.41958  -0.41425  -0.41224  -0.40467
 Alpha  occ. eigenvalues --   -0.39332  -0.39153  -0.38675  -0.37405  -0.36400
 Alpha  occ. eigenvalues --   -0.35840  -0.35265  -0.34886  -0.34135  -0.33583
 Alpha  occ. eigenvalues --   -0.33016  -0.32961  -0.31536  -0.28926  -0.26481
 Alpha  occ. eigenvalues --   -0.26060  -0.25088  -0.24401  -0.23199
 Alpha virt. eigenvalues --   -0.00295  -0.00060   0.00568   0.03136   0.04800
 Alpha virt. eigenvalues --    0.06368   0.06582   0.07380   0.08343   0.09249
 Alpha virt. eigenvalues --    0.09786   0.10522   0.11177   0.11563   0.13108

 Mulliken charges:
               1
     1  O   -0.575367
     2  S    1.346323
     3  N   -0.738230
     4  C    0.215427
     5  C   -0.481732
     6  S    0.742504
     7  O   -0.650399
     8  C   -0.485979
     9  C   -0.312139
    10  C   -0.361335
    11  C    0.170129
    12  C   -0.186713
    13  C   -0.139777
    14  C   -0.141684
    15  C   -0.138467
    16  C   -0.193937
    17  N   -0.522902
    18  C   -0.332746
    19  C   -0.329643
    20  O   -0.547516
    21  H    0.378840
    22  H    0.202146
    23  H    0.219718
    24  H    0.200125
    25  H    0.225113
    26  H    0.192882
    27  H    0.151790
    28  H    0.158969
    29  H    0.153209
    30  H    0.137463
    31  H    0.140249
    32  H    0.138817
    33  H    0.139184
    34  H    0.131962
    35  H    0.200449
    36  H    0.182279
    37  H    0.166674
    38  H    0.193145
    39  H    0.170271
    40  H    0.180898
 Sum of Mulliken charges =   0.00000

 Dipole moment (field-independent basis, Debye):
    X=             -0.3051    Y=             -4.0846    Z=              2.1077  Tot=              4.6065
 Quadrupole moment (field-independent basis, Debye-Ang):
   XX=           -135.0108   YY=           -145.9748   ZZ=           -127.7286
   XY=             -4.9821   XZ=            -15.5385   YZ=             -6.0190

 Normal termination of Gaussian 09 at Sat Aug  8 07:22:33 2020.
