 Gaussian 09, Revision D.01,

 -----------------
 #p b3lyp/6-31G(d)
 -----------------

 ----------------
 SM37.n.8.pdb.xyz
 ----------------
 Symbolic Z-matrix:
 Charge =  0 Multiplicity = 1

 SCF Done:  E(RB3LYP) =  -1638.83582871     A.U. after   16 cycles
 Normal termination of Gaussian 09 at Sat Aug  8 02:52:13 2020.
 Gaussian 09:  AM64L-G09RevD.01 24-Apr-2013

 ----------------------------------------------------------------------
 #p b3lyp/6-31G(d) scrf=(iefpcm,read,solvent=Water) geom=allcheck guess
 =read
 ----------------------------------------------------------------------

 Structure from the checkpoint file:  "SM37.n.8.pdb.xyz.mst.n.w.chk"
 ----------------
 SM37.n.8.pdb.xyz
 ----------------
 Charge =  0 Multiplicity = 1

                         Standard orientation:
 ---------------------------------------------------------------------
 Center     Atomic      Atomic             Coordinates (Angstroms)
 Number     Number       Type             X           Y           Z
 ---------------------------------------------------------------------
      1          8           0        3.088609   -1.908072   -1.536799
      2         16           0        2.770405   -0.814373   -0.603989
      3          7           0        1.131266   -0.570410   -0.756907
      4          6           0        0.469502    0.710353   -0.451989
      5          6           0        0.881704    1.948579   -1.288548
      6         16           0        0.772161    3.069461    0.199145
      7          8           0       -0.645092    3.623898    0.321543
      8          6           0        0.838396    1.341478    0.910602
      9          6           0       -1.046403    0.484356   -0.578551
     10          6           0       -1.614928   -0.605165    0.342222
     11          6           0       -3.117091   -0.728892    0.215403
     12          6           0       -3.690824   -1.581660   -0.738192
     13          6           0       -5.077053   -1.675134   -0.876064
     14          6           0       -5.915401   -0.914004   -0.058027
     15          6           0       -5.356617   -0.061787    0.896685
     16          6           0       -3.970632    0.028386    1.030552
     17          7           0        2.871267   -1.285917    1.009647
     18          6           0        2.198845   -2.565684    1.288082
     19          6           0        4.239281   -1.218792    1.561137
     20          8           0        3.542362    0.433929   -0.704753
     21          1           0        0.816402   -0.992291   -1.632856
     22          1           0        0.217741    2.247755   -2.099663
     23          1           0        1.920857    1.923283   -1.615599
     24          1           0        0.148555    1.186678    1.740092
     25          1           0        1.863623    1.148892    1.224975
     26          1           0       -1.274844    0.242414   -1.624614
     27          1           0       -1.525345    1.445017   -0.366979
     28          1           0       -1.354284   -0.372303    1.380570
     29          1           0       -1.138763   -1.560506    0.099716
     30          1           0       -3.044415   -2.180993   -1.373759
     31          1           0       -5.500406   -2.344345   -1.617628
     32          1           0       -6.992894   -0.988643   -0.160626
     33          1           0       -5.999664    0.528924    1.541652
     34          1           0       -3.542180    0.689730    1.778290
     35          1           0        1.192485   -2.540450    0.874313
     36          1           0        2.133153   -2.673387    2.372457
     37          1           0        2.746196   -3.422599    0.876676
     38          1           0        4.667706   -0.241062    1.351113
     39          1           0        4.892114   -2.002990    1.158494
     40          1           0        4.155472   -1.350470    2.641915
 ---------------------------------------------------------------------

 SCF Done:  E(RB3LYP) =  -1638.85809307     A.U. after   11 cycles

 The electronic state is 1-A.
 Alpha  occ. eigenvalues --  -89.13992 -88.98669 -19.15781 -19.15641 -19.11950
 Alpha  occ. eigenvalues --  -14.37872 -14.37517 -10.26272 -10.21965 -10.21820
 Alpha  occ. eigenvalues --  -10.21667 -10.21235 -10.19760 -10.19426 -10.19017
 Alpha  occ. eigenvalues --  -10.19003 -10.18973 -10.18860 -10.18824 -10.18810
 Alpha  occ. eigenvalues --   -8.16225  -8.03495  -6.12708  -6.12660  -6.12605
 Alpha  occ. eigenvalues --   -5.99915  -5.99709  -5.99271  -1.13177  -1.01362
 Alpha  occ. eigenvalues --   -1.00796  -0.95020  -0.93607  -0.85713  -0.84595
 Alpha  occ. eigenvalues --   -0.79100  -0.74351  -0.74202  -0.72444  -0.71176
 Alpha  occ. eigenvalues --   -0.69820  -0.67271  -0.62398  -0.60704  -0.60373
 Alpha  occ. eigenvalues --   -0.57891  -0.56354  -0.53867  -0.52447  -0.51281
 Alpha  occ. eigenvalues --   -0.51076  -0.48454  -0.48225  -0.46927  -0.45870
 Alpha  occ. eigenvalues --   -0.45598  -0.44912  -0.44297  -0.43442  -0.42413
 Alpha  occ. eigenvalues --   -0.41847  -0.41710  -0.41102  -0.40711  -0.40328
 Alpha  occ. eigenvalues --   -0.39246  -0.38710  -0.38526  -0.37429  -0.36413
 Alpha  occ. eigenvalues --   -0.35420  -0.35318  -0.34938  -0.34004  -0.33431
 Alpha  occ. eigenvalues --   -0.33013  -0.32774  -0.31519  -0.28699  -0.26680
 Alpha  occ. eigenvalues --   -0.25996  -0.25211  -0.24501  -0.23361
 Alpha virt. eigenvalues --   -0.00280  -0.00256   0.00753   0.03073   0.05270
 Alpha virt. eigenvalues --    0.06672   0.07021   0.07525   0.08773   0.09498
 Alpha virt. eigenvalues --    0.10278   0.11029   0.11583   0.11988   0.13327

 Mulliken charges:
               1
     1  O   -0.571655
     2  S    1.347315
     3  N   -0.738890
     4  C    0.216808
     5  C   -0.475406
     6  S    0.747752
     7  O   -0.688687
     8  C   -0.482966
     9  C   -0.305327
    10  C   -0.361965
    11  C    0.161128
    12  C   -0.198739
    13  C   -0.149669
    14  C   -0.152286
    15  C   -0.149785
    16  C   -0.197430
    17  N   -0.525893
    18  C   -0.333255
    19  C   -0.329488
    20  O   -0.592793
    21  H    0.407803
    22  H    0.209128
    23  H    0.222124
    24  H    0.211898
    25  H    0.224045
    26  H    0.162742
    27  H    0.176091
    28  H    0.157867
    29  H    0.168225
    30  H    0.143109
    31  H    0.148711
    32  H    0.147819
    33  H    0.148738
    34  H    0.143189
    35  H    0.197496
    36  H    0.186340
    37  H    0.170486
    38  H    0.196812
    39  H    0.170112
    40  H    0.188494
 Sum of Mulliken charges =   0.00000

 Dipole moment (field-independent basis, Debye):
    X=              0.1050    Y=             -4.7965    Z=              1.9848  Tot=              5.1920
 Quadrupole moment (field-independent basis, Debye-Ang):
   XX=           -137.9639   YY=           -149.7997   ZZ=           -124.5135
   XY=              5.8854   XZ=             16.5152   YZ=             -6.6786

 Normal termination of Gaussian 09 at Sat Aug  8 02:56:53 2020.
