 Gaussian 09, Revision D.01,

 -----------------
 #p b3lyp/6-31G(d)
 -----------------

 -----------------
 SM37.n.12.pdb.xyz
 -----------------
 Symbolic Z-matrix:
 Charge =  0 Multiplicity = 1

 SCF Done:  E(RB3LYP) =  -1638.83356094     A.U. after   16 cycles
 Normal termination of Gaussian 09 at Sat Aug  8 02:41:51 2020.
 Gaussian 09:  AM64L-G09RevD.01 24-Apr-2013

 ----------------------------------------------------------------------
 #p b3lyp/6-31G(d) scrf=(iefpcm,read,solvent=Water) geom=allcheck guess
 =read
 ----------------------------------------------------------------------

 Structure from the checkpoint file:  "SM37.n.12.pdb.xyz.mst.n.w.chk"
 -----------------
 SM37.n.12.pdb.xyz
 -----------------
 Charge =  0 Multiplicity = 1

                         Standard orientation:
 ---------------------------------------------------------------------
 Center     Atomic      Atomic             Coordinates (Angstroms)
 Number     Number       Type             X           Y           Z
 ---------------------------------------------------------------------
      1          8           0        3.179431    0.832902   -0.605211
      2         16           0        2.751703   -0.259692    0.281902
      3          7           0        1.341723    0.084032    1.101583
      4          6           0        0.335344    1.049816    0.627180
      5          6           0       -0.147414    0.837440   -0.822725
      6         16           0       -0.296959    2.676392   -1.109954
      7          8           0       -1.684688    3.151971   -0.682365
      8          6           0        0.802522    2.511077    0.396937
      9          6           0       -0.815901    1.043321    1.649241
     10          6           0       -1.496200   -0.309429    1.927253
     11          6           0       -2.480319   -0.795566    0.880031
     12          6           0       -2.363804   -2.079554    0.333946
     13          6           0       -3.288954   -2.552694   -0.601082
     14          6           0       -4.350939   -1.743610   -1.005610
     15          6           0       -4.480893   -0.460242   -0.465928
     16          6           0       -3.555996    0.005983    0.467644
     17          7           0        2.235110   -1.495771   -0.742088
     18          6           0        3.154456   -1.745708   -1.868703
     19          6           0        1.834602   -2.726752   -0.037066
     20          8           0        3.691669   -0.728723    1.314214
     21          1           0        1.565592    0.190152    2.093166
     22          1           0       -1.078545    0.293304   -0.971091
     23          1           0        0.626936    0.463278   -1.492457
     24          1           0        0.577906    3.240748    1.176399
     25          1           0        1.837719    2.581385    0.064346
     26          1           0       -1.547513    1.779966    1.303427
     27          1           0       -0.408297    1.427973    2.591644
     28          1           0       -2.030279   -0.205305    2.879234
     29          1           0       -0.731289   -1.074618    2.085388
     30          1           0       -1.540987   -2.714685    0.648113
     31          1           0       -3.176941   -3.551874   -1.011313
     32          1           0       -5.069490   -2.106842   -1.731167
     33          1           0       -5.305475    0.176502   -0.772332
     34          1           0       -3.664532    1.005735    0.876615
     35          1           0        3.376352   -0.806864   -2.371413
     36          1           0        2.638082   -2.409272   -2.564884
     37          1           0        4.087921   -2.224092   -1.550346
     38          1           0        1.155159   -2.469636    0.773854
     39          1           0        2.695525   -3.275919    0.360900
     40          1           0        1.308106   -3.358652   -0.755517
 ---------------------------------------------------------------------

 SCF Done:  E(RB3LYP) =  -1638.85436289     A.U. after   11 cycles

 The electronic state is 1-A.
 Alpha  occ. eigenvalues --  -89.13979 -88.98468 -19.15783 -19.15643 -19.11748
 Alpha  occ. eigenvalues --  -14.37860 -14.37468 -10.26074 -10.21930 -10.21903
 Alpha  occ. eigenvalues --  -10.21258 -10.21075 -10.19696 -10.19296 -10.19011
 Alpha  occ. eigenvalues --  -10.18998 -10.18907 -10.18827 -10.18782 -10.18694
 Alpha  occ. eigenvalues --   -8.16208  -8.03295  -6.12691  -6.12644  -6.12589
 Alpha  occ. eigenvalues --   -5.99713  -5.99505  -5.99075  -1.13139  -1.01359
 Alpha  occ. eigenvalues --   -1.00545  -0.94919  -0.93538  -0.85674  -0.84363
 Alpha  occ. eigenvalues --   -0.78864  -0.74363  -0.74126  -0.72447  -0.71079
 Alpha  occ. eigenvalues --   -0.69588  -0.67304  -0.62543  -0.60675  -0.60211
 Alpha  occ. eigenvalues --   -0.57773  -0.56180  -0.53749  -0.52366  -0.51513
 Alpha  occ. eigenvalues --   -0.50485  -0.48437  -0.48032  -0.46605  -0.45792
 Alpha  occ. eigenvalues --   -0.45333  -0.44986  -0.44418  -0.43509  -0.42438
 Alpha  occ. eigenvalues --   -0.41760  -0.41608  -0.41442  -0.40668  -0.40225
 Alpha  occ. eigenvalues --   -0.38723  -0.38654  -0.38195  -0.36944  -0.36499
 Alpha  occ. eigenvalues --   -0.36353  -0.35363  -0.34640  -0.33798  -0.33219
 Alpha  occ. eigenvalues --   -0.32973  -0.32474  -0.31527  -0.28572  -0.26467
 Alpha  occ. eigenvalues --   -0.25914  -0.25183  -0.24384  -0.23132
 Alpha virt. eigenvalues --   -0.00586  -0.00151   0.00976   0.03346   0.05229
 Alpha virt. eigenvalues --    0.06742   0.07078   0.07604   0.08278   0.09445
 Alpha virt. eigenvalues --    0.10449   0.10802   0.11709   0.12785   0.13692

 Mulliken charges:
               1
     1  O   -0.589824
     2  S    1.342612
     3  N   -0.737066
     4  C    0.215889
     5  C   -0.481623
     6  S    0.741707
     7  O   -0.688184
     8  C   -0.477670
     9  C   -0.317673
    10  C   -0.353385
    11  C    0.154635
    12  C   -0.208216
    13  C   -0.147173
    14  C   -0.153053
    15  C   -0.149669
    16  C   -0.188604
    17  N   -0.525789
    18  C   -0.329588
    19  C   -0.333796
    20  O   -0.571519
    21  H    0.406999
    22  H    0.217010
    23  H    0.218878
    24  H    0.206398
    25  H    0.224262
    26  H    0.186309
    27  H    0.160621
    28  H    0.167773
    29  H    0.165370
    30  H    0.142140
    31  H    0.148184
    32  H    0.147630
    33  H    0.148415
    34  H    0.147166
    35  H    0.197239
    36  H    0.187920
    37  H    0.169753
    38  H    0.196897
    39  H    0.171719
    40  H    0.187308
 Sum of Mulliken charges =   0.00000

 Dipole moment (field-independent basis, Debye):
    X=              0.1223    Y=             -5.0062    Z=              0.9873  Tot=              5.1041
 Quadrupole moment (field-independent basis, Debye-Ang):
   XX=           -154.0000   YY=           -133.2956   ZZ=           -124.3941
   XY=              4.2272   XZ=             -5.8073   YZ=             13.1797

 Normal termination of Gaussian 09 at Sat Aug  8 02:47:04 2020.
