 Gaussian 09, Revision D.01,

 -----------------
 #p b3lyp/6-31G(d)
 -----------------

 ----------------
 SM37.n.4.pdb.xyz
 ----------------
 Symbolic Z-matrix:
 Charge =  0 Multiplicity = 1

 SCF Done:  E(RB3LYP) =  -1638.83294040     A.U. after   16 cycles
 Normal termination of Gaussian 09 at Sat Aug  8 02:41:31 2020.
 Gaussian 09:  AM64L-G09RevD.01 24-Apr-2013

 ----------------------------------------------------------------------
 #p b3lyp/6-31G(d) scrf=(iefpcm,read,solvent=Water) geom=allcheck guess
 =read
 ----------------------------------------------------------------------

 Structure from the checkpoint file:  "SM37.n.4.pdb.xyz.mst.n.w.chk"
 ----------------
 SM37.n.4.pdb.xyz
 ----------------
 Charge =  0 Multiplicity = 1

                         Standard orientation:
 ---------------------------------------------------------------------
 Center     Atomic      Atomic             Coordinates (Angstroms)
 Number     Number       Type             X           Y           Z
 ---------------------------------------------------------------------
      1          8           0       -3.426362    0.816905   -0.168650
      2         16           0       -2.838360   -0.480501   -0.519274
      3          7           0       -1.289035   -0.482479    0.133872
      4          6           0       -0.447569    0.728412    0.165962
      5          6           0       -0.885587    1.767060    1.220977
      6         16           0       -0.389898    3.191758    0.117468
      7          8           0        1.079841    3.537789    0.353139
      8          6           0       -0.511430    1.719332   -1.026864
      9          6           0        0.998015    0.283408    0.448887
     10          6           0        1.682008   -0.534442   -0.660796
     11          6           0        3.134961   -0.808620   -0.334721
     12          6           0        3.539798   -2.068271    0.124795
     13          6           0        4.875896   -2.317893    0.449998
     14          6           0        5.828397   -1.307100    0.319838
     15          6           0        5.437079   -0.046461   -0.139176
     16          6           0        4.102325    0.198168   -0.462873
     17          7           0       -3.676493   -1.658463    0.317360
     18          6           0       -3.363573   -3.053543   -0.030515
     19          6           0       -3.817569   -1.415988    1.762152
     20          8           0       -2.821617   -0.898773   -1.927236
     21          1           0       -0.793754   -1.315300   -0.191426
     22          1           0       -0.369551    1.757744    2.181930
     23          1           0       -1.967127    1.810051    1.346883
     24          1           0        0.287007    1.680669   -1.767699
     25          1           0       -1.486747    1.764520   -1.510582
     26          1           0        1.001942   -0.282178    1.387390
     27          1           0        1.569972    1.199807    0.621140
     28          1           0        1.614337    0.014508   -1.606844
     29          1           0        1.173232   -1.491014   -0.814117
     30          1           0        2.801964   -2.859062    0.224271
     31          1           0        5.169305   -3.301671    0.801993
     32          1           0        6.866742   -1.498762    0.569746
     33          1           0        6.171544    0.745227   -0.249274
     34          1           0        3.806843    1.179717   -0.822400
     35          1           0       -3.299551   -3.155348   -1.111396
     36          1           0       -4.184228   -3.673962    0.334600
     37          1           0       -2.429941   -3.401093    0.429601
     38          1           0       -4.096974   -0.376139    1.926320
     39          1           0       -2.895451   -1.642690    2.310491
     40          1           0       -4.620148   -2.060273    2.125638
 ---------------------------------------------------------------------

 SCF Done:  E(RB3LYP) =  -1638.85333379     A.U. after   11 cycles

 The electronic state is 1-A.
 Alpha  occ. eigenvalues --  -89.14295 -88.98725 -19.16023 -19.15982 -19.11990
 Alpha  occ. eigenvalues --  -14.38281 -14.37808 -10.26518 -10.22275 -10.22070
 Alpha  occ. eigenvalues --  -10.21688 -10.21353 -10.19969 -10.19688 -10.19647
 Alpha  occ. eigenvalues --  -10.19105 -10.19082 -10.18943 -10.18935 -10.18929
 Alpha  occ. eigenvalues --   -8.16522  -8.03548  -6.12983  -6.12956  -6.12932
 Alpha  occ. eigenvalues --   -5.99967  -5.99759  -5.99326  -1.13627  -1.01885
 Alpha  occ. eigenvalues --   -1.00785  -0.95214  -0.93893  -0.85872  -0.84700
 Alpha  occ. eigenvalues --   -0.79377  -0.74452  -0.74223  -0.72816  -0.71369
 Alpha  occ. eigenvalues --   -0.70128  -0.67438  -0.62570  -0.61493  -0.60500
 Alpha  occ. eigenvalues --   -0.58083  -0.56180  -0.54900  -0.52055  -0.51825
 Alpha  occ. eigenvalues --   -0.51119  -0.49198  -0.47885  -0.47326  -0.46378
 Alpha  occ. eigenvalues --   -0.46054  -0.45110  -0.44515  -0.43551  -0.42633
 Alpha  occ. eigenvalues --   -0.41901  -0.41678  -0.41316  -0.40940  -0.40242
 Alpha  occ. eigenvalues --   -0.39455  -0.39002  -0.38777  -0.37299  -0.36438
 Alpha  occ. eigenvalues --   -0.36023  -0.35714  -0.35156  -0.34204  -0.33650
 Alpha  occ. eigenvalues --   -0.33555  -0.32680  -0.31702  -0.28693  -0.27005
 Alpha  occ. eigenvalues --   -0.26106  -0.25285  -0.24613  -0.23595
 Alpha virt. eigenvalues --   -0.00487  -0.00252   0.00725   0.02997   0.04605
 Alpha virt. eigenvalues --    0.05643   0.06831   0.07537   0.09224   0.09401
 Alpha virt. eigenvalues --    0.09900   0.10867   0.10969   0.12656   0.12977

 Mulliken charges:
               1
     1  O   -0.599953
     2  S    1.338125
     3  N   -0.737819
     4  C    0.222553
     5  C   -0.470093
     6  S    0.749188
     7  O   -0.688248
     8  C   -0.485694
     9  C   -0.313091
    10  C   -0.380392
    11  C    0.164269
    12  C   -0.201182
    13  C   -0.148967
    14  C   -0.150939
    15  C   -0.150389
    16  C   -0.193683
    17  N   -0.515018
    18  C   -0.336869
    19  C   -0.328910
    20  O   -0.564744
    21  H    0.380249
    22  H    0.209041
    23  H    0.224627
    24  H    0.212610
    25  H    0.221592
    26  H    0.168166
    27  H    0.185142
    28  H    0.168018
    29  H    0.159797
    30  H    0.144560
    31  H    0.149512
    32  H    0.148723
    33  H    0.149991
    34  H    0.145046
    35  H    0.200444
    36  H    0.193477
    37  H    0.171949
    38  H    0.194951
    39  H    0.173447
    40  H    0.190514
 Sum of Mulliken charges =   0.00000

 Dipole moment (field-independent basis, Debye):
    X=             -0.5771    Y=             -7.1546    Z=              3.2094  Tot=              7.8627
 Quadrupole moment (field-independent basis, Debye-Ang):
   XX=           -138.4948   YY=           -135.1100   ZZ=           -133.6378
   XY=              1.8246   XZ=            -14.2593   YZ=             -8.0515

 Normal termination of Gaussian 09 at Sat Aug  8 02:46:06 2020.
