 Gaussian 09, Revision D.01,

 -----------------
 #p b3lyp/6-31G(d)
 -----------------

 -----------------
 SM37.n.10.pdb.xyz
 -----------------
 Symbolic Z-matrix:
 Charge =  0 Multiplicity = 1

 SCF Done:  E(RB3LYP) =  -1638.82755097     A.U. after   16 cycles
 Normal termination of Gaussian 09 at Sat Aug  8 05:58:29 2020.
 Gaussian 09:  AM64L-G09RevD.01 24-Apr-2013

 ----------------------------------------------------------------------
 #p b3lyp/6-31G(d) scrf=(iefpcm,read,solvent=n-Octanol) geom=allcheck g
 uess=read
 ----------------------------------------------------------------------

 Structure from the checkpoint file:  "SM37.n.10.pdb.xyz.mst.n.o.chk"
 -----------------
 SM37.n.10.pdb.xyz
 -----------------
 Charge =  0 Multiplicity = 1

                         Standard orientation:
 ---------------------------------------------------------------------
 Center     Atomic      Atomic             Coordinates (Angstroms)
 Number     Number       Type             X           Y           Z
 ---------------------------------------------------------------------
      1          8           0       -4.171853    0.213558   -0.220010
      2         16           0       -2.759968   -0.067694   -0.499477
      3          7           0       -1.933997    1.075727    0.379881
      4          6           0       -0.464566    1.197541    0.507092
      5          6           0       -0.151240    2.656671    0.927058
      6         16           0        0.932015    2.982729   -0.561162
      7          8           0        2.395800    2.907253   -0.153620
      8          6           0        0.240025    1.273830   -0.870798
      9          6           0        0.118392    0.161145    1.483241
     10          6           0        1.656547    0.189887    1.648922
     11          6           0        2.418391   -0.751052    0.736292
     12          6           0        3.326687   -0.252956   -0.207058
     13          6           0        4.050084   -1.120470   -1.029768
     14          6           0        3.876920   -2.499663   -0.919886
     15          6           0        2.976026   -3.007055    0.019018
     16          6           0        2.256698   -2.138942    0.838252
     17          7           0       -2.306734   -1.577640    0.125525
     18          6           0       -2.933508   -1.878825    1.415882
     19          6           0       -2.407475   -2.687281   -0.839031
     20          8           0       -2.262909   -0.045101   -1.876082
     21          1           0       -2.455431    1.334187    1.211868
     22          1           0        0.424813    2.770328    1.847091
     23          1           0       -1.014972    3.322082    0.928275
     24          1           0        1.042556    0.553292   -1.025333
     25          1           0       -0.439882    1.282596   -1.719521
     26          1           0       -0.206029   -0.830137    1.157197
     27          1           0       -0.354070    0.348441    2.455166
     28          1           0        1.880950   -0.075672    2.687695
     29          1           0        2.035687    1.206292    1.498005
     30          1           0        3.444903    0.823676   -0.294240
     31          1           0        4.747784   -0.716321   -1.756010
     32          1           0        4.438903   -3.174629   -1.557707
     33          1           0        2.837328   -4.079825    0.115975
     34          1           0        1.565659   -2.545537    1.572153
     35          1           0       -2.784281   -1.051325    2.110935
     36          1           0       -2.438884   -2.760808    1.829813
     37          1           0       -4.007868   -2.077291    1.325000
     38          1           0       -1.905941   -2.408685   -1.762120
     39          1           0       -3.447406   -2.965089   -1.053742
     40          1           0       -1.897644   -3.545393   -0.395709
 ---------------------------------------------------------------------

 SCF Done:  E(RB3LYP) =  -1638.85514027     A.U. after   11 cycles

 The electronic state is 1-A.
 Alpha  occ. eigenvalues --  -89.13863 -88.98864 -19.15507 -19.15333 -19.12209
 Alpha  occ. eigenvalues --  -14.37929 -14.37857 -10.26667 -10.22713 -10.22280
 Alpha  occ. eigenvalues --  -10.22244 -10.21348 -10.19427 -10.19341 -10.18842
 Alpha  occ. eigenvalues --  -10.18808 -10.18655 -10.18595 -10.18566 -10.17965
 Alpha  occ. eigenvalues --   -8.16060  -8.03694  -6.12534  -6.12486  -6.12471
 Alpha  occ. eigenvalues --   -6.00111  -5.99920  -5.99461  -1.13146  -1.01427
 Alpha  occ. eigenvalues --   -1.01142  -0.94973  -0.93926  -0.85503  -0.84455
 Alpha  occ. eigenvalues --   -0.78730  -0.74028  -0.73809  -0.73015  -0.71388
 Alpha  occ. eigenvalues --   -0.70529  -0.67571  -0.62880  -0.60809  -0.60003
 Alpha  occ. eigenvalues --   -0.57868  -0.56382  -0.55108  -0.52737  -0.51118
 Alpha  occ. eigenvalues --   -0.50878  -0.48633  -0.48046  -0.46934  -0.46772
 Alpha  occ. eigenvalues --   -0.45034  -0.44917  -0.44524  -0.43456  -0.42510
 Alpha  occ. eigenvalues --   -0.42157  -0.41659  -0.41310  -0.41255  -0.40585
 Alpha  occ. eigenvalues --   -0.39913  -0.39106  -0.38588  -0.37353  -0.35950
 Alpha  occ. eigenvalues --   -0.35224  -0.35126  -0.34633  -0.33644  -0.32831
 Alpha  occ. eigenvalues --   -0.32749  -0.32380  -0.31408  -0.29324  -0.27056
 Alpha  occ. eigenvalues --   -0.25790  -0.24759  -0.24128  -0.23266
 Alpha virt. eigenvalues --   -0.00259   0.00095   0.00174   0.02127   0.04071
 Alpha virt. eigenvalues --    0.05906   0.06666   0.07710   0.08471   0.09865
 Alpha virt. eigenvalues --    0.10411   0.11401   0.11638   0.12328   0.12621

 Mulliken charges:
               1
     1  O   -0.548072
     2  S    1.310777
     3  N   -0.727853
     4  C    0.230467
     5  C   -0.503390
     6  S    0.765106
     7  O   -0.643240
     8  C   -0.518030
     9  C   -0.289589
    10  C   -0.389819
    11  C    0.152249
    12  C   -0.220730
    13  C   -0.140476
    14  C   -0.141978
    15  C   -0.137807
    16  C   -0.182315
    17  N   -0.519026
    18  C   -0.324275
    19  C   -0.322052
    20  O   -0.561326
    21  H    0.381246
    22  H    0.214180
    23  H    0.210186
    24  H    0.222786
    25  H    0.235137
    26  H    0.188700
    27  H    0.141284
    28  H    0.159207
    29  H    0.176847
    30  H    0.174346
    31  H    0.137151
    32  H    0.136009
    33  H    0.135771
    34  H    0.128019
    35  H    0.171226
    36  H    0.180987
    37  H    0.176519
    38  H    0.201368
    39  H    0.163809
    40  H    0.176602
 Sum of Mulliken charges =   0.00000

 Dipole moment (field-independent basis, Debye):
    X=             -1.8192    Y=             -3.2700    Z=              4.5723  Tot=              5.9083
 Quadrupole moment (field-independent basis, Debye-Ang):
   XX=           -157.1044   YY=           -123.7456   ZZ=           -128.3505
   XY=             -3.5883   XZ=            -13.7018   YZ=              4.1101

 Normal termination of Gaussian 09 at Sat Aug  8 06:03:19 2020.
