 Gaussian 09, Revision D.01,

 -----------------
 #p b3lyp/6-31G(d)
 -----------------

 ----------------
 SM37.n.5.pdb.xyz
 ----------------
 Symbolic Z-matrix:
 Charge =  0 Multiplicity = 1

 SCF Done:  E(RB3LYP) =  -1638.83597755     A.U. after   16 cycles
 Normal termination of Gaussian 09 at Sat Aug  8 02:42:09 2020.
 Gaussian 09:  AM64L-G09RevD.01 24-Apr-2013

 ----------------------------------------------------------------------
 #p b3lyp/6-31G(d) scrf=(iefpcm,read,solvent=Water) geom=allcheck guess
 =read
 ----------------------------------------------------------------------

 Structure from the checkpoint file:  "SM37.n.5.pdb.xyz.mst.n.w.chk"
 ----------------
 SM37.n.5.pdb.xyz
 ----------------
 Charge =  0 Multiplicity = 1

                         Standard orientation:
 ---------------------------------------------------------------------
 Center     Atomic      Atomic             Coordinates (Angstroms)
 Number     Number       Type             X           Y           Z
 ---------------------------------------------------------------------
      1          8           0       -3.533827    0.453629   -0.713335
      2         16           0       -2.775270   -0.802460   -0.608499
      3          7           0       -1.132717   -0.573995   -0.742416
      4          6           0       -0.465440    0.704962   -0.446396
      5          6           0       -0.822028    1.336988    0.914033
      6         16           0       -0.740166    3.063965    0.203097
      7          8           0        0.688014    3.595160    0.307914
      8          6           0       -0.887728    1.938069   -1.285423
      9          6           0        1.047252    0.472721   -0.583810
     10          6           0        1.617634   -0.607157    0.348683
     11          6           0        3.119943   -0.732789    0.221443
     12          6           0        3.974902    0.122101    0.931962
     13          6           0        5.360166    0.026706    0.794222
     14          6           0        5.915948   -0.929267   -0.059744
     15          6           0        5.075396   -1.786161   -0.772995
     16          6           0        3.690568   -1.686886   -0.631041
     17          7           0       -2.900615   -1.270892    1.007529
     18          6           0       -4.274389   -1.183617    1.537214
     19          6           0       -2.244564   -2.556400    1.306471
     20          8           0       -3.094902   -1.892928   -1.545320
     21          1           0       -0.808553   -1.010505   -1.607180
     22          1           0       -0.131710    1.174537    1.741613
     23          1           0       -1.847610    1.157925    1.232371
     24          1           0       -0.241701    2.229917   -2.113536
     25          1           0       -1.937061    1.913289   -1.579929
     26          1           0        1.529361    1.434944   -0.387997
     27          1           0        1.263593    0.214343   -1.628734
     28          1           0        1.143877   -1.566436    0.120814
     29          1           0        1.356409   -0.361265    1.383884
     30          1           0        3.549859    0.865039    1.601180
     31          1           0        6.005728    0.694284    1.356452
     32          1           0        6.993378   -1.006360   -0.166080
     33          1           0        5.497653   -2.535249   -1.435549
     34          1           0        3.041386   -2.359960   -1.183801
     35          1           0       -4.691750   -0.206299    1.304166
     36          1           0       -4.210551   -1.295682    2.620369
     37          1           0       -4.928122   -1.968814    1.138963
     38          1           0       -1.232323   -2.542823    0.904102
     39          1           0       -2.796261   -3.409980    0.894648
     40          1           0       -2.195522   -2.653296    2.393092
 ---------------------------------------------------------------------

 SCF Done:  E(RB3LYP) =  -1638.85787202     A.U. after   11 cycles

 The electronic state is 1-A.
 Alpha  occ. eigenvalues --  -89.14000 -88.98661 -19.15799 -19.15676 -19.11952
 Alpha  occ. eigenvalues --  -14.37838 -14.37509 -10.26228 -10.21886 -10.21850
 Alpha  occ. eigenvalues --  -10.21639 -10.21226 -10.19752 -10.19409 -10.19018
 Alpha  occ. eigenvalues --  -10.19001 -10.18985 -10.18862 -10.18815 -10.18800
 Alpha  occ. eigenvalues --   -8.16230  -8.03485  -6.12714  -6.12665  -6.12611
 Alpha  occ. eigenvalues --   -5.99904  -5.99697  -5.99262  -1.13170  -1.01387
 Alpha  occ. eigenvalues --   -1.00765  -0.94997  -0.93590  -0.85725  -0.84606
 Alpha  occ. eigenvalues --   -0.79091  -0.74357  -0.74202  -0.72419  -0.71150
 Alpha  occ. eigenvalues --   -0.69787  -0.67246  -0.62437  -0.60729  -0.60359
 Alpha  occ. eigenvalues --   -0.57898  -0.56343  -0.53869  -0.52445  -0.51302
 Alpha  occ. eigenvalues --   -0.51081  -0.48468  -0.48203  -0.46932  -0.45886
 Alpha  occ. eigenvalues --   -0.45598  -0.44894  -0.44245  -0.43414  -0.42397
 Alpha  occ. eigenvalues --   -0.41844  -0.41693  -0.41136  -0.40716  -0.40354
 Alpha  occ. eigenvalues --   -0.39240  -0.38681  -0.38544  -0.37365  -0.36428
 Alpha  occ. eigenvalues --   -0.35544  -0.35311  -0.34860  -0.34010  -0.33445
 Alpha  occ. eigenvalues --   -0.33010  -0.32775  -0.31555  -0.28701  -0.26635
 Alpha  occ. eigenvalues --   -0.25944  -0.25217  -0.24498  -0.23364
 Alpha virt. eigenvalues --   -0.00324  -0.00201   0.00714   0.03097   0.05234
 Alpha virt. eigenvalues --    0.06675   0.06952   0.07495   0.08708   0.09478
 Alpha virt. eigenvalues --    0.10263   0.10990   0.11653   0.12032   0.13374

 Mulliken charges:
               1
     1  O   -0.592584
     2  S    1.346653
     3  N   -0.738043
     4  C    0.215338
     5  C   -0.481739
     6  S    0.746135
     7  O   -0.687649
     8  C   -0.475896
     9  C   -0.306543
    10  C   -0.361891
    11  C    0.161436
    12  C   -0.196193
    13  C   -0.150133
    14  C   -0.152337
    15  C   -0.149260
    16  C   -0.200494
    17  N   -0.526575
    18  C   -0.330077
    19  C   -0.331848
    20  O   -0.570449
    21  H    0.408285
    22  H    0.211219
    23  H    0.223950
    24  H    0.208511
    25  H    0.223834
    26  H    0.178513
    27  H    0.162368
    28  H    0.167983
    29  H    0.157423
    30  H    0.143247
    31  H    0.148856
    32  H    0.147805
    33  H    0.148578
    34  H    0.143301
    35  H    0.196957
    36  H    0.188088
    37  H    0.169375
    38  H    0.196699
    39  H    0.170560
    40  H    0.186595
 Sum of Mulliken charges =   0.00000

 Dipole moment (field-independent basis, Debye):
    X=             -0.2049    Y=             -4.7592    Z=              2.0476  Tot=              5.1850
 Quadrupole moment (field-independent basis, Debye-Ang):
   XX=           -137.7672   YY=           -148.4993   ZZ=           -125.6289
   XY=             -5.9481   XZ=            -16.6254   YZ=             -6.3739

 Normal termination of Gaussian 09 at Sat Aug  8 02:46:50 2020.
