 Gaussian 09, Revision D.01,

 -----------------
 #p b3lyp/6-31G(d)
 -----------------

 -----------------
 SM37.n.14.pdb.xyz
 -----------------
 Symbolic Z-matrix:
 Charge =  0 Multiplicity = 1

 SCF Done:  E(RB3LYP) =  -1638.83496270     A.U. after   16 cycles
 Normal termination of Gaussian 09 at Sat Aug  8 06:44:19 2020.
 Gaussian 09:  AM64L-G09RevD.01 24-Apr-2013

 ----------------------------------------------------------------------
 #p b3lyp/6-31G(d) scrf=(iefpcm,read,solvent=n-Octanol) geom=allcheck g
 uess=read
 ----------------------------------------------------------------------

 Structure from the checkpoint file:  "SM37.n.14.pdb.xyz.mst.n.o.chk"
 -----------------
 SM37.n.14.pdb.xyz
 -----------------
 Charge =  0 Multiplicity = 1

                         Standard orientation:
 ---------------------------------------------------------------------
 Center     Atomic      Atomic             Coordinates (Angstroms)
 Number     Number       Type             X           Y           Z
 ---------------------------------------------------------------------
      1          8           0        1.579268    2.374877   -0.521790
      2         16           0        0.191180    1.913095   -0.590866
      3          7           0        0.138347    0.436987    0.228555
      4          6           0        1.278456   -0.495688    0.226457
      5          6           0        2.481448   -0.023290    1.070223
      6         16           0        3.703615   -0.785274   -0.127452
      7          8           0        3.964844   -2.231971    0.261242
      8          6           0        2.095577   -0.668384   -1.080912
      9          6           0        0.788716   -1.856115    0.756234
     10          6           0       -0.239924   -2.610819   -0.107964
     11          6           0       -1.664577   -2.089927   -0.059994
     12          6           0       -2.328088   -1.702719   -1.232254
     13          6           0       -3.646534   -1.242673   -1.193671
     14          6           0       -4.323105   -1.162767    0.022740
     15          6           0       -3.673371   -1.544907    1.200049
     16          6           0       -2.359059   -2.004033    1.156987
     17          7           0       -0.734853    2.955844    0.333339
     18          6           0       -2.181718    2.706448    0.301857
     19          6           0       -0.198477    3.235819    1.673358
     20          8           0       -0.484274    1.792662   -1.886068
     21          1           0       -0.743990   -0.028086    0.009487
     22          1           0        2.567257   -0.419797    2.083459
     23          1           0        2.617270    1.056600    1.044561
     24          1           0        1.893801   -1.545811   -1.696008
     25          1           0        2.137548    0.235230   -1.689093
     26          1           0        0.391886   -1.704634    1.765773
     27          1           0        1.685681   -2.475562    0.851109
     28          1           0       -0.236564   -3.652374    0.232016
     29          1           0        0.098197   -2.636080   -1.149689
     30          1           0       -1.804225   -1.764931   -2.180851
     31          1           0       -4.140952   -0.949276   -2.112838
     32          1           0       -5.346758   -0.806474    0.056823
     33          1           0       -4.193736   -1.489711    2.151567
     34          1           0       -1.862762   -2.302467    2.075840
     35          1           0       -2.499307    2.546675   -0.726249
     36          1           0       -2.680082    3.596276    0.689643
     37          1           0       -2.475190    1.844942    0.917285
     38          1           0        0.863415    3.459477    1.590493
     39          1           0       -0.349072    2.395783    2.363374
     40          1           0       -0.718361    4.115071    2.057401
 ---------------------------------------------------------------------

 SCF Done:  E(RB3LYP) =  -1638.86001714     A.U. after   11 cycles

 The electronic state is 1-A.
 Alpha  occ. eigenvalues --  -89.13742 -88.98575 -19.15680 -19.15442 -19.11609
 Alpha  occ. eigenvalues --  -14.38039 -14.37138 -10.26406 -10.22511 -10.22356
 Alpha  occ. eigenvalues --  -10.21623 -10.21338 -10.20574 -10.19993 -10.19873
 Alpha  occ. eigenvalues --  -10.19776 -10.19699 -10.19636 -10.19628 -10.19577
 Alpha  occ. eigenvalues --   -8.15991  -8.03390  -6.12451  -6.12423  -6.12397
 Alpha  occ. eigenvalues --   -5.99802  -5.99609  -5.99171  -1.13240  -1.01603
 Alpha  occ. eigenvalues --   -1.00731  -0.94977  -0.93690  -0.86436  -0.84515
 Alpha  occ. eigenvalues --   -0.79634  -0.75149  -0.74396  -0.73081  -0.71453
 Alpha  occ. eigenvalues --   -0.70171  -0.67533  -0.62879  -0.61244  -0.61124
 Alpha  occ. eigenvalues --   -0.58495  -0.56096  -0.54742  -0.51948  -0.51861
 Alpha  occ. eigenvalues --   -0.51470  -0.49111  -0.47941  -0.47148  -0.46452
 Alpha  occ. eigenvalues --   -0.46104  -0.45526  -0.44630  -0.43825  -0.43681
 Alpha  occ. eigenvalues --   -0.42612  -0.41833  -0.41300  -0.40814  -0.40005
 Alpha  occ. eigenvalues --   -0.39429  -0.39209  -0.38596  -0.38410  -0.36509
 Alpha  occ. eigenvalues --   -0.36237  -0.35806  -0.34807  -0.34312  -0.33892
 Alpha  occ. eigenvalues --   -0.33450  -0.32488  -0.31318  -0.28447  -0.26748
 Alpha  occ. eigenvalues --   -0.26091  -0.25683  -0.25041  -0.23221
 Alpha virt. eigenvalues --   -0.01315  -0.00936   0.00761   0.03242   0.05196
 Alpha virt. eigenvalues --    0.05861   0.07253   0.08328   0.08922   0.09516
 Alpha virt. eigenvalues --    0.09684   0.10533   0.11120   0.11972   0.12984

 Mulliken charges:
               1
     1  O   -0.589504
     2  S    1.347916
     3  N   -0.747727
     4  C    0.220697
     5  C   -0.475802
     6  S    0.742317
     7  O   -0.654254
     8  C   -0.489546
     9  C   -0.319435
    10  C   -0.357902
    11  C    0.104909
    12  C   -0.191726
    13  C   -0.129087
    14  C   -0.140065
    15  C   -0.136312
    16  C   -0.176597
    17  N   -0.502445
    18  C   -0.343032
    19  C   -0.331066
    20  O   -0.548850
    21  H    0.372988
    22  H    0.198175
    23  H    0.221333
    24  H    0.201589
    25  H    0.218108
    26  H    0.161115
    27  H    0.189016
    28  H    0.175202
    29  H    0.156693
    30  H    0.144686
    31  H    0.147474
    32  H    0.145518
    33  H    0.146384
    34  H    0.143951
    35  H    0.202909
    36  H    0.184179
    37  H    0.163883
    38  H    0.195396
    39  H    0.166854
    40  H    0.182056
 Sum of Mulliken charges =   0.00000

 Dipole moment (field-independent basis, Debye):
    X=             -6.2284    Y=              0.8708    Z=              3.5774  Tot=              7.2352
 Quadrupole moment (field-independent basis, Debye-Ang):
   XX=           -141.2993   YY=           -140.8866   ZZ=           -127.9700
   XY=              5.6516   XZ=             -2.8612   YZ=             11.7454

 Normal termination of Gaussian 09 at Sat Aug  8 06:49:11 2020.
