 Gaussian 09, Revision D.01,

 -----------------
 #p b3lyp/6-31G(d)
 -----------------

 -----------------
 SM37.n.15.pdb.xyz
 -----------------
 Symbolic Z-matrix:
 Charge =  0 Multiplicity = 1

 SCF Done:  E(RB3LYP) =  -1638.83042599     A.U. after   16 cycles
 Normal termination of Gaussian 09 at Sat Aug  8 02:41:54 2020.
 Gaussian 09:  AM64L-G09RevD.01 24-Apr-2013

 ----------------------------------------------------------------------
 #p b3lyp/6-31G(d) scrf=(iefpcm,read,solvent=Water) geom=allcheck guess
 =read
 ----------------------------------------------------------------------

 Structure from the checkpoint file:  "SM37.n.15.pdb.xyz.mst.n.w.chk"
 -----------------
 SM37.n.15.pdb.xyz
 -----------------
 Charge =  0 Multiplicity = 1

                         Standard orientation:
 ---------------------------------------------------------------------
 Center     Atomic      Atomic             Coordinates (Angstroms)
 Number     Number       Type             X           Y           Z
 ---------------------------------------------------------------------
      1          8           0        2.540196    0.774353   -1.072143
      2         16           0        2.880712   -0.035299    0.112525
      3          7           0        1.431323   -0.612776    0.694880
      4          6           0        0.222884    0.242693    0.670465
      5          6           0       -0.298901    0.471770   -0.769521
      6         16           0       -0.057060    2.319751   -0.692635
      7          8           0       -1.411297    3.025105   -0.610072
      8          6           0        0.450789    1.744915    1.010513
      9          6           0       -0.771732   -0.449864    1.622185
     10          6           0       -2.195801    0.151087    1.686932
     11          6           0       -3.205274   -0.412422    0.703891
     12          6           0       -3.615444   -1.750675    0.785500
     13          6           0       -4.568323   -2.263620   -0.094216
     14          6           0       -5.134936   -1.442695   -1.072491
     15          6           0       -4.737232   -0.108205   -1.163451
     16          6           0       -3.780628    0.401360   -0.281568
     17          7           0        3.615839   -1.498371   -0.243044
     18          6           0        2.985015   -2.234736   -1.350092
     19          6           0        5.086800   -1.435418   -0.340186
     20          8           0        3.710984    0.605026    1.145483
     21          1           0        1.587234   -1.068717    1.596820
     22          1           0       -1.356522    0.249117   -0.906527
     23          1           0        0.300439    0.025224   -1.558691
     24          1           0       -0.248484    2.155049    1.740306
     25          1           0        1.468660    2.035573    1.269704
     26          1           0       -0.331694   -0.406180    2.624110
     27          1           0       -0.827177   -1.507918    1.345519
     28          1           0       -2.153758    1.238710    1.569619
     29          1           0       -2.570186   -0.026115    2.700787
     30          1           0       -3.190889   -2.396094    1.550369
     31          1           0       -4.874387   -3.303009   -0.012118
     32          1           0       -5.878463   -1.839610   -1.756120
     33          1           0       -5.169386    0.539643   -1.920237
     34          1           0       -3.457108    1.434678   -0.362997
     35          1           0        1.908898   -2.270807   -1.187094
     36          1           0        3.380552   -3.252231   -1.333474
     37          1           0        3.199275   -1.782634   -2.324961
     38          1           0        5.486701   -0.911207    0.525824
     39          1           0        5.423464   -0.943689   -1.259765
     40          1           0        5.451919   -2.464002   -0.336090
 ---------------------------------------------------------------------

 SCF Done:  E(RB3LYP) =  -1638.85239731     A.U. after   11 cycles

 The electronic state is 1-A.
 Alpha  occ. eigenvalues --  -89.13961 -88.98236 -19.15730 -19.15667 -19.11690
 Alpha  occ. eigenvalues --  -14.38097 -14.37453 -10.26393 -10.22012 -10.21915
 Alpha  occ. eigenvalues --  -10.21344 -10.20832 -10.19968 -10.19798 -10.19352
 Alpha  occ. eigenvalues --  -10.19074 -10.18998 -10.18888 -10.18843 -10.18568
 Alpha  occ. eigenvalues --   -8.16224  -8.03038  -6.12692  -6.12662  -6.12610
 Alpha  occ. eigenvalues --   -5.99466  -5.99257  -5.98804  -1.13230  -1.01277
 Alpha  occ. eigenvalues --   -1.00273  -0.95264  -0.93716  -0.85778  -0.84067
 Alpha  occ. eigenvalues --   -0.78927  -0.74493  -0.74298  -0.72547  -0.71350
 Alpha  occ. eigenvalues --   -0.69998  -0.66994  -0.62616  -0.60562  -0.60303
 Alpha  occ. eigenvalues --   -0.57678  -0.56157  -0.54401  -0.51702  -0.51643
 Alpha  occ. eigenvalues --   -0.50977  -0.48982  -0.47389  -0.46963  -0.46108
 Alpha  occ. eigenvalues --   -0.45609  -0.44989  -0.44646  -0.43930  -0.41916
 Alpha  occ. eigenvalues --   -0.41801  -0.41634  -0.41087  -0.40818  -0.39976
 Alpha  occ. eigenvalues --   -0.39156  -0.38904  -0.38662  -0.36938  -0.36518
 Alpha  occ. eigenvalues --   -0.35586  -0.35375  -0.34957  -0.33835  -0.33427
 Alpha  occ. eigenvalues --   -0.33203  -0.32858  -0.31339  -0.28333  -0.26608
 Alpha  occ. eigenvalues --   -0.26097  -0.25204  -0.24463  -0.23103
 Alpha virt. eigenvalues --   -0.00621  -0.00300   0.01155   0.02758   0.05626
 Alpha virt. eigenvalues --    0.05908   0.06723   0.08425   0.09245   0.10025
 Alpha virt. eigenvalues --    0.10510   0.10806   0.11671   0.12509   0.13162

 Mulliken charges:
               1
     1  O   -0.589487
     2  S    1.327441
     3  N   -0.737020
     4  C    0.237522
     5  C   -0.486598
     6  S    0.766028
     7  O   -0.695133
     8  C   -0.505989
     9  C   -0.308502
    10  C   -0.373825
    11  C    0.152711
    12  C   -0.194688
    13  C   -0.149207
    14  C   -0.152065
    15  C   -0.149402
    16  C   -0.216449
    17  N   -0.524806
    18  C   -0.330322
    19  C   -0.326925
    20  O   -0.569458
    21  H    0.406625
    22  H    0.217112
    23  H    0.217424
    24  H    0.215686
    25  H    0.220897
    26  H    0.169262
    27  H    0.174260
    28  H    0.164998
    29  H    0.174111
    30  H    0.144932
    31  H    0.148999
    32  H    0.148083
    33  H    0.148783
    34  H    0.158116
    35  H    0.195636
    36  H    0.188484
    37  H    0.173181
    38  H    0.198104
    39  H    0.172690
    40  H    0.188789
 Sum of Mulliken charges =   0.00000

 Dipole moment (field-independent basis, Debye):
    X=              2.0110    Y=             -8.6999    Z=              2.1983  Tot=              9.1959
 Quadrupole moment (field-independent basis, Debye-Ang):
   XX=           -132.4597   YY=           -139.0834   ZZ=           -125.9508
   XY=             -5.1104   XZ=             -4.5407   YZ=              5.9857

 Normal termination of Gaussian 09 at Sat Aug  8 02:46:35 2020.
