 Gaussian 09, Revision D.01,

 -----------------
 #p b3lyp/6-31G(d)
 -----------------

 ----------------
 SM37.n.4.pdb.xyz
 ----------------
 Symbolic Z-matrix:
 Charge =  0 Multiplicity = 1

 SCF Done:  E(RB3LYP) =  -1638.83396380     A.U. after   16 cycles
 Normal termination of Gaussian 09 at Sat Aug  8 07:08:33 2020.
 Gaussian 09:  AM64L-G09RevD.01 24-Apr-2013

 ----------------------------------------------------------------------
 #p b3lyp/6-31G(d) scrf=(iefpcm,read,solvent=n-Octanol) geom=allcheck g
 uess=read
 ----------------------------------------------------------------------

 Structure from the checkpoint file:  "SM37.n.4.pdb.xyz.mst.n.o.chk"
 ----------------
 SM37.n.4.pdb.xyz
 ----------------
 Charge =  0 Multiplicity = 1

                         Standard orientation:
 ---------------------------------------------------------------------
 Center     Atomic      Atomic             Coordinates (Angstroms)
 Number     Number       Type             X           Y           Z
 ---------------------------------------------------------------------
      1          8           0       -3.352964    0.776287   -0.529666
      2         16           0       -2.849336   -0.595238   -0.627838
      3          7           0       -1.250234   -0.572983   -0.083777
      4          6           0       -0.457959    0.658920    0.062400
      5          6           0       -0.977837    1.641997    1.130979
      6         16           0       -0.425731    3.122080    0.117843
      7          8           0        1.021311    3.459035    0.443281
      8          6           0       -0.481209    1.694240   -1.090207
      9          6           0        0.981390    0.241699    0.409412
     10          6           0        1.726994   -0.544321   -0.682338
     11          6           0        3.180011   -0.773654   -0.326780
     12          6           0        3.631388   -2.042982    0.054437
     13          6           0        4.967167   -2.256605    0.398266
     14          6           0        5.874732   -1.197591    0.365194
     15          6           0        5.437044    0.073388   -0.012432
     16          6           0        4.101302    0.281988   -0.354934
     17          7           0       -3.717568   -1.505531    0.479863
     18          6           0       -3.372610   -2.932522    0.511609
     19          6           0       -3.852733   -0.897238    1.810919
     20          8           0       -2.889069   -1.335275   -1.889660
     21          1           0       -0.742507   -1.325962   -0.542664
     22          1           0       -0.523338    1.595277    2.121399
     23          1           0       -2.064627    1.677420    1.185048
     24          1           0        0.348742    1.693888   -1.797324
     25          1           0       -1.441554    1.735495   -1.603788
     26          1           0        0.955507   -0.341130    1.336038
     27          1           0        1.525926    1.166709    0.621002
     28          1           0        1.661591    0.003767   -1.629309
     29          1           0        1.257834   -1.519720   -0.851769
     30          1           0        2.927372   -2.870644    0.075741
     31          1           0        5.296880   -3.248255    0.687297
     32          1           0        6.914240   -1.360605    0.629657
     33          1           0        6.136805    0.902337   -0.044564
     34          1           0        3.769397    1.274834   -0.648410
     35          1           0       -3.331076   -3.319180   -0.504570
     36          1           0       -4.164178   -3.452576    1.052422
     37          1           0       -2.417610   -3.119061    1.020190
     38          1           0       -4.178886    0.135388    1.699445
     39          1           0       -2.915485   -0.935865    2.381821
     40          1           0       -4.619631   -1.456281    2.348859
 ---------------------------------------------------------------------

 SCF Done:  E(RB3LYP) =  -1638.85945443     A.U. after   11 cycles

 The electronic state is 1-A.
 Alpha  occ. eigenvalues --  -89.14222 -88.98758 -19.16152 -19.15984 -19.11764
 Alpha  occ. eigenvalues --  -14.38237 -14.37923 -10.26708 -10.22656 -10.22600
 Alpha  occ. eigenvalues --  -10.21707 -10.21662 -10.20160 -10.20031 -10.19878
 Alpha  occ. eigenvalues --  -10.19127 -10.19116 -10.19033 -10.18975 -10.18961
 Alpha  occ. eigenvalues --   -8.16457  -8.03568  -6.12930  -6.12889  -6.12854
 Alpha  occ. eigenvalues --   -5.99979  -5.99788  -5.99350  -1.13743  -1.02253
 Alpha  occ. eigenvalues --   -1.00862  -0.95170  -0.94140  -0.85939  -0.84770
 Alpha  occ. eigenvalues --   -0.79602  -0.74517  -0.74256  -0.73258  -0.71429
 Alpha  occ. eigenvalues --   -0.70386  -0.67702  -0.62778  -0.61660  -0.60600
 Alpha  occ. eigenvalues --   -0.58261  -0.56409  -0.55008  -0.52572  -0.51930
 Alpha  occ. eigenvalues --   -0.51275  -0.49290  -0.48169  -0.47744  -0.46687
 Alpha  occ. eigenvalues --   -0.46183  -0.45061  -0.44722  -0.43829  -0.42810
 Alpha  occ. eigenvalues --   -0.42227  -0.42024  -0.41503  -0.41435  -0.40358
 Alpha  occ. eigenvalues --   -0.39613  -0.39385  -0.38751  -0.37480  -0.36461
 Alpha  occ. eigenvalues --   -0.36234  -0.35755  -0.35110  -0.34132  -0.33826
 Alpha  occ. eigenvalues --   -0.33555  -0.32916  -0.31853  -0.29077  -0.26938
 Alpha  occ. eigenvalues --   -0.25909  -0.25216  -0.24566  -0.23392
 Alpha virt. eigenvalues --   -0.00488  -0.00178   0.00560   0.03026   0.04401
 Alpha virt. eigenvalues --    0.05434   0.06550   0.07350   0.08775   0.09015
 Alpha virt. eigenvalues --    0.09854   0.10174   0.10487   0.12185   0.12631

 Mulliken charges:
               1
     1  O   -0.583044
     2  S    1.349841
     3  N   -0.748571
     4  C    0.226734
     5  C   -0.481687
     6  S    0.744313
     7  O   -0.650354
     8  C   -0.486845
     9  C   -0.308321
    10  C   -0.383446
    11  C    0.171508
    12  C   -0.192789
    13  C   -0.138537
    14  C   -0.140300
    15  C   -0.140276
    16  C   -0.186343
    17  N   -0.493637
    18  C   -0.341034
    19  C   -0.337795
    20  O   -0.546719
    21  H    0.363494
    22  H    0.201356
    23  H    0.218264
    24  H    0.201473
    25  H    0.220160
    26  H    0.159714
    27  H    0.196698
    28  H    0.163755
    29  H    0.145306
    30  H    0.132613
    31  H    0.140514
    32  H    0.139984
    33  H    0.141854
    34  H    0.141982
    35  H    0.201519
    36  H    0.185989
    37  H    0.162784
    38  H    0.198210
    39  H    0.166407
    40  H    0.185226
 Sum of Mulliken charges =   0.00000

 Dipole moment (field-independent basis, Debye):
    X=             -0.4631    Y=             -5.1309    Z=              3.1429  Tot=              6.0347
 Quadrupole moment (field-independent basis, Debye-Ang):
   XX=           -135.7126   YY=           -137.1486   ZZ=           -133.4691
   XY=             -1.5734   XZ=            -15.7636   YZ=             -8.6346

 Normal termination of Gaussian 09 at Sat Aug  8 07:13:05 2020.
