 Gaussian 09, Revision D.01,

 -----------------
 #p b3lyp/6-31G(d)
 -----------------

 ----------------
 SM37.n.2.pdb.xyz
 ----------------
 Symbolic Z-matrix:
 Charge =  0 Multiplicity = 1

 SCF Done:  E(RB3LYP) =  -1638.83063325     A.U. after   15 cycles
 Normal termination of Gaussian 09 at Sat Aug  8 06:57:24 2020.
 Gaussian 09:  AM64L-G09RevD.01 24-Apr-2013

 ----------------------------------------------------------------------
 #p b3lyp/6-31G(d) scrf=(iefpcm,read,solvent=n-Octanol) geom=allcheck g
 uess=read
 ----------------------------------------------------------------------

 Structure from the checkpoint file:  "SM37.n.2.pdb.xyz.mst.n.o.chk"
 ----------------
 SM37.n.2.pdb.xyz
 ----------------
 Charge =  0 Multiplicity = 1

                         Standard orientation:
 ---------------------------------------------------------------------
 Center     Atomic      Atomic             Coordinates (Angstroms)
 Number     Number       Type             X           Y           Z
 ---------------------------------------------------------------------
      1          8           0        0.878266    1.626193   -1.782886
      2         16           0        0.014251    1.809817   -0.614933
      3          7           0        0.258061    0.496732    0.432835
      4          6           0        1.090645   -0.664215    0.031664
      5          6           0        1.594618   -1.429013    1.281318
      6         16           0        3.295217   -1.676165    0.536888
      7          8           0        3.312976   -2.944264   -0.298559
      8          6           0        2.511340   -0.282871   -0.441406
      9          6           0        0.434089   -1.615921   -0.993617
     10          6           0       -0.760457   -2.466712   -0.516052
     11          6           0       -2.040844   -1.739516   -0.159599
     12          6           0       -2.848994   -1.167160   -1.150718
     13          6           0       -4.040477   -0.525145   -0.820841
     14          6           0       -4.449300   -0.441830    0.512556
     15          6           0       -3.657513   -1.007664    1.510437
     16          6           0       -2.465683   -1.654110    1.174138
     17          7           0        0.583213    3.174292    0.186487
     18          6           0       -0.149331    3.497663    1.417710
     19          6           0        2.041948    3.258252    0.326956
     20          8           0       -1.429104    1.999248   -0.750298
     21          1           0       -0.652192    0.211592    0.794222
     22          1           0        1.105920   -2.367349    1.543352
     23          1           0        1.692454   -0.786494    2.159030
     24          1           0        2.715359   -0.328640   -1.508286
     25          1           0        2.873623    0.654775   -0.019810
     26          1           0        1.218726   -2.312747   -1.307186
     27          1           0        0.159122   -1.024273   -1.872229
     28          1           0       -0.451126   -3.074746    0.340844
     29          1           0       -0.972440   -3.177668   -1.323274
     30          1           0       -2.544324   -1.230584   -2.191257
     31          1           0       -4.652430   -0.091534   -1.604399
     32          1           0       -5.378805    0.056241    0.768125
     33          1           0       -3.968038   -0.956749    2.549169
     34          1           0       -1.864540   -2.115708    1.952911
     35          1           0       -1.219276    3.462808    1.218892
     36          1           0        0.121488    4.513834    1.709325
     37          1           0        0.096120    2.813860    2.240131
     38          1           0        2.506789    3.067542   -0.638580
     39          1           0        2.432094    2.555367    1.076622
     40          1           0        2.283724    4.274914    0.644536
 ---------------------------------------------------------------------

 SCF Done:  E(RB3LYP) =  -1638.85635655     A.U. after   11 cycles

 The electronic state is 1-A.
 Alpha  occ. eigenvalues --  -89.13443 -88.98949 -19.15512 -19.15189 -19.12017
 Alpha  occ. eigenvalues --  -14.37746 -14.37083 -10.26497 -10.22527 -10.22244
 Alpha  occ. eigenvalues --  -10.22238 -10.22072 -10.19983 -10.19529 -10.19295
 Alpha  occ. eigenvalues --  -10.19272 -10.19175 -10.19103 -10.18982 -10.18887
 Alpha  occ. eigenvalues --   -8.15686  -8.03767  -6.12156  -6.12114  -6.12087
 Alpha  occ. eigenvalues --   -6.00175  -5.99991  -5.99546  -1.12948  -1.01505
 Alpha  occ. eigenvalues --   -1.01162  -0.94528  -0.93413  -0.85833  -0.84651
 Alpha  occ. eigenvalues --   -0.79093  -0.74570  -0.73846  -0.72998  -0.71146
 Alpha  occ. eigenvalues --   -0.70584  -0.67414  -0.63140  -0.60672  -0.60373
 Alpha  occ. eigenvalues --   -0.58250  -0.56127  -0.54298  -0.52268  -0.51372
 Alpha  occ. eigenvalues --   -0.51080  -0.49140  -0.48402  -0.47094  -0.46378
 Alpha  occ. eigenvalues --   -0.45586  -0.44628  -0.44487  -0.43467  -0.43361
 Alpha  occ. eigenvalues --   -0.42088  -0.42033  -0.41197  -0.40818  -0.40273
 Alpha  occ. eigenvalues --   -0.39501  -0.39123  -0.38847  -0.37668  -0.36361
 Alpha  occ. eigenvalues --   -0.35896  -0.35302  -0.34723  -0.33852  -0.33619
 Alpha  occ. eigenvalues --   -0.32752  -0.32571  -0.31249  -0.28724  -0.26790
 Alpha  occ. eigenvalues --   -0.25998  -0.25240  -0.24549  -0.23214
 Alpha virt. eigenvalues --   -0.00756  -0.00403  -0.00111   0.03033   0.04925
 Alpha virt. eigenvalues --    0.06082   0.07155   0.08363   0.08638   0.09163
 Alpha virt. eigenvalues --    0.10492   0.10545   0.10951   0.11684   0.12489

 Mulliken charges:
               1
     1  O   -0.575022
     2  S    1.354444
     3  N   -0.756258
     4  C    0.209175
     5  C   -0.486435
     6  S    0.745132
     7  O   -0.647640
     8  C   -0.471459
     9  C   -0.287092
    10  C   -0.371507
    11  C    0.155893
    12  C   -0.169167
    13  C   -0.123032
    14  C   -0.138173
    15  C   -0.129918
    16  C   -0.224502
    17  N   -0.493241
    18  C   -0.338238
    19  C   -0.339613
    20  O   -0.547856
    21  H    0.369144
    22  H    0.204790
    23  H    0.203254
    24  H    0.215956
    25  H    0.194332
    26  H    0.176972
    27  H    0.169472
    28  H    0.152866
    29  H    0.166905
    30  H    0.137426
    31  H    0.141363
    32  H    0.140073
    33  H    0.141325
    34  H    0.134477
    35  H    0.199329
    36  H    0.181191
    37  H    0.162264
    38  H    0.199858
    39  H    0.158881
    40  H    0.184631
 Sum of Mulliken charges =   0.00000

 Dipole moment (field-independent basis, Debye):
    X=             -0.5578    Y=              2.6108    Z=              5.4376  Tot=              6.0576
 Quadrupole moment (field-independent basis, Debye-Ang):
   XX=           -136.3760   YY=           -139.8755   ZZ=           -128.4585
   XY=             17.8945   XZ=              3.1023   YZ=              6.8365

 Normal termination of Gaussian 09 at Sat Aug  8 07:02:25 2020.
