 Gaussian 09, Revision D.01,

 -----------------
 #p b3lyp/6-31G(d)
 -----------------

 -----------------
 SM37.n.11.pdb.xyz
 -----------------
 Symbolic Z-matrix:
 Charge =  0 Multiplicity = 1

 SCF Done:  E(RB3LYP) =  -1638.83260434     A.U. after   16 cycles
 Normal termination of Gaussian 09 at Sat Aug  8 06:10:18 2020.
 Gaussian 09:  AM64L-G09RevD.01 24-Apr-2013

 ----------------------------------------------------------------------
 #p b3lyp/6-31G(d) scrf=(iefpcm,read,solvent=n-Octanol) geom=allcheck g
 uess=read
 ----------------------------------------------------------------------

 Structure from the checkpoint file:  "SM37.n.11.pdb.xyz.mst.n.o.chk"
 -----------------
 SM37.n.11.pdb.xyz
 -----------------
 Charge =  0 Multiplicity = 1

                         Standard orientation:
 ---------------------------------------------------------------------
 Center     Atomic      Atomic             Coordinates (Angstroms)
 Number     Number       Type             X           Y           Z
 ---------------------------------------------------------------------
      1          8           0       -2.571023    0.695384   -1.301163
      2         16           0       -2.308631   -0.516634   -0.509746
      3          7           0       -1.269452   -0.049934    0.712537
      4          6           0       -0.165826    0.896734    0.477288
      5          6           0       -0.629165    2.363033    0.341197
      6         16           0        0.712614    2.737334   -0.909437
      7          8           0        1.981923    3.153006   -0.181004
      8          6           0        0.558832    0.870183   -0.897286
      9          6           0        0.807234    0.783286    1.665844
     10          6           0        1.482365   -0.579223    1.926870
     11          6           0        2.513218   -1.032955    0.912561
     12          6           0        3.701936   -0.314481    0.722121
     13          6           0        4.655310   -0.744029   -0.200771
     14          6           0        4.438550   -1.904959   -0.946678
     15          6           0        3.262669   -2.632722   -0.760590
     16          6           0        2.311247   -2.197743    0.163133
     17          7           0       -3.599087   -0.992742    0.452808
     18          6           0       -4.270603    0.115868    1.141592
     19          6           0       -4.518804   -1.952367   -0.180851
     20          8           0       -1.853514   -1.718129   -1.218996
     21          1           0       -1.018319   -0.865072    1.269737
     22          1           0       -0.578357    2.990694    1.231944
     23          1           0       -1.591835    2.450352   -0.161563
     24          1           0        1.513157    0.351545   -0.964160
     25          1           0       -0.101172    0.598574   -1.722177
     26          1           0        0.245187    1.065430    2.564050
     27          1           0        1.568208    1.554036    1.511849
     28          1           0        0.732739   -1.370900    2.038129
     29          1           0        1.961589   -0.499487    2.909571
     30          1           0        3.880184    0.591335    1.294374
     31          1           0        5.568208   -0.174688   -0.335208
     32          1           0        5.179971   -2.239314   -1.663887
     33          1           0        3.084278   -3.537756   -1.334012
     34          1           0        1.396016   -2.765404    0.304107
     35          1           0       -3.518916    0.746108    1.616378
     36          1           0       -4.910139   -0.310416    1.915665
     37          1           0       -4.883794    0.721428    0.464227
     38          1           0       -3.941649   -2.743519   -0.655250
     39          1           0       -5.174250   -1.478830   -0.922580
     40          1           0       -5.135946   -2.382434    0.611059
 ---------------------------------------------------------------------

 SCF Done:  E(RB3LYP) =  -1638.85718018     A.U. after   11 cycles

 The electronic state is 1-A.
 Alpha  occ. eigenvalues --  -89.13813 -88.98350 -19.15429 -19.15358 -19.11360
 Alpha  occ. eigenvalues --  -14.38095 -14.37786 -10.26467 -10.22421 -10.22324
 Alpha  occ. eigenvalues --  -10.21232 -10.21221 -10.20101 -10.19948 -10.19938
 Alpha  occ. eigenvalues --  -10.19143 -10.19129 -10.18993 -10.18982 -10.18912
 Alpha  occ. eigenvalues --   -8.16061  -8.03168  -6.12536  -6.12497  -6.12448
 Alpha  occ. eigenvalues --   -5.99579  -5.99385  -5.98952  -1.13063  -1.01100
 Alpha  occ. eigenvalues --   -1.00463  -0.95387  -0.93851  -0.85926  -0.84524
 Alpha  occ. eigenvalues --   -0.79376  -0.74551  -0.74389  -0.72972  -0.71420
 Alpha  occ. eigenvalues --   -0.69791  -0.67380  -0.62621  -0.61311  -0.60458
 Alpha  occ. eigenvalues --   -0.58125  -0.56199  -0.54836  -0.52212  -0.51510
 Alpha  occ. eigenvalues --   -0.50831  -0.48768  -0.47606  -0.47107  -0.46318
 Alpha  occ. eigenvalues --   -0.45931  -0.45229  -0.44838  -0.43643  -0.42777
 Alpha  occ. eigenvalues --   -0.41959  -0.41729  -0.41510  -0.41190  -0.39955
 Alpha  occ. eigenvalues --   -0.39144  -0.38900  -0.38376  -0.37322  -0.36998
 Alpha  occ. eigenvalues --   -0.35830  -0.35657  -0.35066  -0.33919  -0.33462
 Alpha  occ. eigenvalues --   -0.33399  -0.32676  -0.31096  -0.28192  -0.26299
 Alpha  occ. eigenvalues --   -0.25894  -0.25245  -0.24514  -0.22977
 Alpha virt. eigenvalues --   -0.00714  -0.00262   0.01055   0.03576   0.04717
 Alpha virt. eigenvalues --    0.06151   0.06794   0.07468   0.09212   0.09653
 Alpha virt. eigenvalues --    0.10220   0.10606   0.10933   0.12562   0.13223

 Mulliken charges:
               1
     1  O   -0.575350
     2  S    1.318681
     3  N   -0.730388
     4  C    0.224340
     5  C   -0.474680
     6  S    0.738706
     7  O   -0.654674
     8  C   -0.493524
     9  C   -0.317929
    10  C   -0.377123
    11  C    0.161421
    12  C   -0.180753
    13  C   -0.137319
    14  C   -0.141500
    15  C   -0.135035
    16  C   -0.194957
    17  N   -0.522458
    18  C   -0.326323
    19  C   -0.327125
    20  O   -0.541017
    21  H    0.367444
    22  H    0.196517
    23  H    0.222425
    24  H    0.219442
    25  H    0.214837
    26  H    0.157658
    27  H    0.197055
    28  H    0.145784
    29  H    0.172128
    30  H    0.142312
    31  H    0.142376
    32  H    0.140758
    33  H    0.141754
    34  H    0.135420
    35  H    0.191793
    36  H    0.179950
    37  H    0.170207
    38  H    0.201798
    39  H    0.166575
    40  H    0.180775
 Sum of Mulliken charges =   0.00000

 Dipole moment (field-independent basis, Debye):
    X=             -4.0982    Y=             -2.8653    Z=              4.1497  Tot=              6.4981
 Quadrupole moment (field-independent basis, Debye-Ang):
   XX=           -118.0158   YY=           -142.2238   ZZ=           -131.1048
   XY=             -6.0344   XZ=            -10.5555   YZ=              2.0334

 Normal termination of Gaussian 09 at Sat Aug  8 06:14:56 2020.
