 Gaussian 09, Revision D.01,

 -----------------
 #p b3lyp/6-31G(d)
 -----------------

 ----------------
 SM37.n.9.pdb.xyz
 ----------------
 Symbolic Z-matrix:
 Charge =  0 Multiplicity = 1

 SCF Done:  E(RB3LYP) =  -1638.83279798     A.U. after   16 cycles
 Normal termination of Gaussian 09 at Sat Aug  8 02:52:53 2020.
 Gaussian 09:  AM64L-G09RevD.01 24-Apr-2013

 ----------------------------------------------------------------------
 #p b3lyp/6-31G(d) scrf=(iefpcm,read,solvent=Water) geom=allcheck guess
 =read
 ----------------------------------------------------------------------

 Structure from the checkpoint file:  "SM37.n.9.pdb.xyz.mst.n.w.chk"
 ----------------
 SM37.n.9.pdb.xyz
 ----------------
 Charge =  0 Multiplicity = 1

                         Standard orientation:
 ---------------------------------------------------------------------
 Center     Atomic      Atomic             Coordinates (Angstroms)
 Number     Number       Type             X           Y           Z
 ---------------------------------------------------------------------
      1          8           0       -2.547554    0.606349   -1.557980
      2         16           0       -2.728738   -0.626116   -0.775659
      3          7           0       -1.340621   -1.073091    0.033194
      4          6           0       -0.255711   -0.121596    0.349493
      5          6           0       -0.752022    1.164436    1.050894
      6         16           0        0.030873    2.295509   -0.208081
      7          8           0        1.295005    2.921887    0.383363
      8          6           0        0.391888    0.586127   -0.874959
      9          6           0        0.732658   -0.917859    1.219059
     10          6           0        2.032338   -0.168279    1.591845
     11          6           0        3.209630   -0.414729    0.667252
     12          6           0        3.843486    0.650971    0.014633
     13          6           0        4.952591    0.429912   -0.806903
     14          6           0        5.444818   -0.863913   -0.988772
     15          6           0        4.818943   -1.934569   -0.344683
     16          6           0        3.712593   -1.709367    0.475734
     17          7           0       -3.726282   -0.201022    0.516289
     18          6           0       -4.908391    0.579736    0.110514
     19          6           0       -4.051307   -1.319944    1.417534
     20          8           0       -3.187252   -1.840174   -1.471786
     21          1           0       -1.001292   -1.941187   -0.377106
     22          1           0       -0.318987    1.345380    2.034980
     23          1           0       -1.832440    1.292802    1.088900
     24          1           0        1.463884    0.433429   -0.996050
     25          1           0       -0.138519    0.441699   -1.813447
     26          1           0        0.986904   -1.848964    0.702093
     27          1           0        0.190191   -1.198347    2.126657
     28          1           0        2.314179   -0.483351    2.601691
     29          1           0        1.844513    0.908689    1.643472
     30          1           0        3.445196    1.652416    0.145241
     31          1           0        5.429340    1.268228   -1.305560
     32          1           0        6.305483   -1.037289   -1.626121
     33          1           0        5.194797   -2.944250   -0.477898
     34          1           0        3.238563   -2.548399    0.976649
     35          1           0       -4.598436    1.409194   -0.522305
     36          1           0       -5.360597    0.976514    1.020890
     37          1           0       -5.652888   -0.029341   -0.416516
     38          1           0       -3.131142   -1.838458    1.687269
     39          1           0       -4.757363   -2.026219    0.964901
     40          1           0       -4.497906   -0.894092    2.317082
 ---------------------------------------------------------------------

 SCF Done:  E(RB3LYP) =  -1638.85314122     A.U. after   11 cycles

 The electronic state is 1-A.
 Alpha  occ. eigenvalues --  -89.14019 -88.98452 -19.15911 -19.15775 -19.12004
 Alpha  occ. eigenvalues --  -14.37911 -14.37494 -10.26238 -10.21930 -10.21844
 Alpha  occ. eigenvalues --  -10.21363 -10.20954 -10.19625 -10.19613 -10.18994
 Alpha  occ. eigenvalues --  -10.18912 -10.18827 -10.18803 -10.18723 -10.18399
 Alpha  occ. eigenvalues --   -8.16263  -8.03273  -6.12744  -6.12698  -6.12643
 Alpha  occ. eigenvalues --   -5.99700  -5.99489  -5.99040  -1.13245  -1.01489
 Alpha  occ. eigenvalues --   -1.00574  -0.95042  -0.93664  -0.85658  -0.84127
 Alpha  occ. eigenvalues --   -0.78773  -0.74344  -0.74155  -0.72462  -0.71331
 Alpha  occ. eigenvalues --   -0.69872  -0.67269  -0.62540  -0.60388  -0.60199
 Alpha  occ. eigenvalues --   -0.57611  -0.56016  -0.53854  -0.52792  -0.51377
 Alpha  occ. eigenvalues --   -0.50844  -0.48384  -0.48036  -0.46757  -0.46170
 Alpha  occ. eigenvalues --   -0.45121  -0.45030  -0.44364  -0.43893  -0.41944
 Alpha  occ. eigenvalues --   -0.41798  -0.41645  -0.41118  -0.40801  -0.40224
 Alpha  occ. eigenvalues --   -0.39389  -0.38728  -0.38425  -0.37139  -0.36239
 Alpha  occ. eigenvalues --   -0.35677  -0.35298  -0.34987  -0.33644  -0.33148
 Alpha  occ. eigenvalues --   -0.32827  -0.32706  -0.31639  -0.28728  -0.26704
 Alpha  occ. eigenvalues --   -0.25960  -0.25102  -0.24331  -0.23309
 Alpha virt. eigenvalues --   -0.00528  -0.00164   0.00925   0.02420   0.05526
 Alpha virt. eigenvalues --    0.06272   0.06621   0.07419   0.08994   0.09853
 Alpha virt. eigenvalues --    0.10327   0.11586   0.11848   0.12741   0.13458

 Mulliken charges:
               1
     1  O   -0.590390
     2  S    1.345400
     3  N   -0.744682
     4  C    0.230769
     5  C   -0.504724
     6  S    0.759469
     7  O   -0.684635
     8  C   -0.492122
     9  C   -0.293062
    10  C   -0.383788
    11  C    0.149373
    12  C   -0.215460
    13  C   -0.150342
    14  C   -0.152766
    15  C   -0.150632
    16  C   -0.195387
    17  N   -0.524381
    18  C   -0.330200
    19  C   -0.327988
    20  O   -0.568261
    21  H    0.406376
    22  H    0.218348
    23  H    0.231460
    24  H    0.217280
    25  H    0.219261
    26  H    0.165440
    27  H    0.168428
    28  H    0.169964
    29  H    0.172197
    30  H    0.159605
    31  H    0.147439
    32  H    0.147033
    33  H    0.147971
    34  H    0.145364
    35  H    0.197089
    36  H    0.188596
    37  H    0.169943
    38  H    0.194333
    39  H    0.170625
    40  H    0.187057
 Sum of Mulliken charges =   0.00000

 Dipole moment (field-independent basis, Debye):
    X=             -2.7715    Y=             -4.6091    Z=              4.0706  Tot=              6.7450
 Quadrupole moment (field-independent basis, Debye-Ang):
   XX=           -123.7648   YY=           -142.9673   ZZ=           -133.4648
   XY=            -13.3702   XZ=            -20.4385   YZ=             -5.5627

 Normal termination of Gaussian 09 at Sat Aug  8 02:57:35 2020.
