 Gaussian 09, Revision D.01,

 -----------------
 #p b3lyp/6-31G(d)
 -----------------

 -----------------
 SM37.n.13.pdb.xyz
 -----------------
 Symbolic Z-matrix:
 Charge =  0 Multiplicity = 1

 SCF Done:  E(RB3LYP) =  -1638.82906917     A.U. after   16 cycles
 Normal termination of Gaussian 09 at Sat Aug  8 02:40:57 2020.
 Gaussian 09:  AM64L-G09RevD.01 24-Apr-2013

 ----------------------------------------------------------------------
 #p b3lyp/6-31G(d) scrf=(iefpcm,read,solvent=Water) geom=allcheck guess
 =read
 ----------------------------------------------------------------------

 Structure from the checkpoint file:  "SM37.n.13.pdb.xyz.mst.n.w.chk"
 -----------------
 SM37.n.13.pdb.xyz
 -----------------
 Charge =  0 Multiplicity = 1

                         Standard orientation:
 ---------------------------------------------------------------------
 Center     Atomic      Atomic             Coordinates (Angstroms)
 Number     Number       Type             X           Y           Z
 ---------------------------------------------------------------------
      1          8           0       -1.919089   -0.902033   -1.664535
      2         16           0       -2.137931   -1.331139   -0.280058
      3          7           0       -1.750607    0.002338    0.688427
      4          6           0       -0.567719    0.832783    0.331919
      5          6           0       -0.515430    2.020532    1.326112
      6         16           0       -0.671494    3.306977   -0.016906
      7          8           0        0.682011    3.951315   -0.296606
      8          6           0       -0.829341    1.688121   -0.931614
      9          6           0        0.727218    0.003153    0.291184
     10          6           0        2.018621    0.780382   -0.022366
     11          6           0        3.227744   -0.128278   -0.024613
     12          6           0        3.667869   -0.734212   -1.208852
     13          6           0        4.767722   -1.593309   -1.209796
     14          6           0        5.447330   -1.862104   -0.020381
     15          6           0        5.020307   -1.263499    1.166798
     16          6           0        3.921033   -0.404465    1.161940
     17          7           0       -3.779551   -1.554385   -0.076984
     18          6           0       -4.204583   -2.130571    1.206639
     19          6           0       -4.627215   -0.449039   -0.549433
     20          8           0       -1.489303   -2.556777    0.205028
     21          1           0       -1.694821   -0.310629    1.661948
     22          1           0        0.420105    2.139226    1.873432
     23          1           0       -1.362959    2.082529    2.009719
     24          1           0       -0.077083    1.616923   -1.716674
     25          1           0       -1.824420    1.579938   -1.355723
     26          1           0        0.601852   -0.785233   -0.457329
     27          1           0        0.833759   -0.494107    1.261788
     28          1           0        2.161303    1.577382    0.713304
     29          1           0        1.928309    1.266450   -0.998293
     30          1           0        3.145586   -0.524277   -2.138887
     31          1           0        5.094400   -2.049500   -2.138630
     32          1           0        6.305611   -2.527169   -0.019295
     33          1           0        5.546282   -1.460743    2.095684
     34          1           0        3.597860    0.062093    2.087736
     35          1           0       -3.540153   -2.948765    1.476679
     36          1           0       -5.213343   -2.524765    1.071441
     37          1           0       -4.223252   -1.386419    2.013301
     38          1           0       -4.268938   -0.112234   -1.519964
     39          1           0       -4.637662    0.390993    0.155483
     40          1           0       -5.640808   -0.837770   -0.660698
 ---------------------------------------------------------------------

 SCF Done:  E(RB3LYP) =  -1638.85500695     A.U. after   11 cycles

 The electronic state is 1-A.
 Alpha  occ. eigenvalues --  -89.13822 -88.98565 -19.15719 -19.15663 -19.11999
 Alpha  occ. eigenvalues --  -14.38036 -14.37242 -10.26279 -10.22134 -10.21955
 Alpha  occ. eigenvalues --  -10.21791 -10.21419 -10.19776 -10.19470 -10.19097
 Alpha  occ. eigenvalues --  -10.19010 -10.18996 -10.18860 -10.18819 -10.18812
 Alpha  occ. eigenvalues --   -8.16073  -8.03403  -6.12520  -6.12507  -6.12488
 Alpha  occ. eigenvalues --   -5.99825  -5.99627  -5.99167  -1.13249  -1.01580
 Alpha  occ. eigenvalues --   -1.00754  -0.94886  -0.93542  -0.85758  -0.84120
 Alpha  occ. eigenvalues --   -0.79061  -0.74367  -0.73840  -0.72702  -0.71384
 Alpha  occ. eigenvalues --   -0.70380  -0.67042  -0.62845  -0.60450  -0.60062
 Alpha  occ. eigenvalues --   -0.58112  -0.55880  -0.54576  -0.52056  -0.51403
 Alpha  occ. eigenvalues --   -0.50541  -0.48642  -0.48068  -0.47717  -0.46514
 Alpha  occ. eigenvalues --   -0.45282  -0.44896  -0.44362  -0.43142  -0.42139
 Alpha  occ. eigenvalues --   -0.41869  -0.41815  -0.40904  -0.40845  -0.40349
 Alpha  occ. eigenvalues --   -0.40135  -0.38893  -0.37955  -0.37660  -0.36206
 Alpha  occ. eigenvalues --   -0.35526  -0.35135  -0.34633  -0.34027  -0.33550
 Alpha  occ. eigenvalues --   -0.33324  -0.32637  -0.31487  -0.28620  -0.27018
 Alpha  occ. eigenvalues --   -0.26274  -0.25213  -0.24480  -0.23120
 Alpha virt. eigenvalues --   -0.00296  -0.00227   0.00731   0.02255   0.04941
 Alpha virt. eigenvalues --    0.05539   0.07154   0.08508   0.09155   0.09979
 Alpha virt. eigenvalues --    0.10264   0.10904   0.11365   0.11773   0.12677

 Mulliken charges:
               1
     1  O   -0.597185
     2  S    1.347091
     3  N   -0.739375
     4  C    0.214718
     5  C   -0.500418
     6  S    0.763167
     7  O   -0.691397
     8  C   -0.477804
     9  C   -0.286482
    10  C   -0.376702
    11  C    0.159926
    12  C   -0.197808
    13  C   -0.149499
    14  C   -0.151942
    15  C   -0.149792
    16  C   -0.196159
    17  N   -0.515124
    18  C   -0.334977
    19  C   -0.329024
    20  O   -0.575938
    21  H    0.401904
    22  H    0.220145
    23  H    0.217780
    24  H    0.215263
    25  H    0.218966
    26  H    0.175281
    27  H    0.161895
    28  H    0.162902
    29  H    0.162188
    30  H    0.143680
    31  H    0.148903
    32  H    0.147820
    33  H    0.148721
    34  H    0.143513
    35  H    0.198452
    36  H    0.190345
    37  H    0.171382
    38  H    0.195126
    39  H    0.172261
    40  H    0.188196
 Sum of Mulliken charges =   0.00000

 Dipole moment (field-independent basis, Debye):
    X=             -5.7154    Y=             -0.8854    Z=              5.5588  Tot=              8.0219
 Quadrupole moment (field-independent basis, Debye-Ang):
   XX=           -108.3053   YY=           -163.2338   ZZ=           -122.7121
   XY=            -11.7312   XZ=             -7.8182   YZ=             -0.0318

 Normal termination of Gaussian 09 at Sat Aug  8 02:45:38 2020.
