 Gaussian 09, Revision D.01,

 -----------------
 #p b3lyp/6-31G(d)
 -----------------

 -----------------
 SM37.n.11.pdb.xyz
 -----------------
 Symbolic Z-matrix:
 Charge =  0 Multiplicity = 1

 SCF Done:  E(RB3LYP) =  -1638.83229684     A.U. after   16 cycles
 Normal termination of Gaussian 09 at Sat Aug  8 02:41:58 2020.
 Gaussian 09:  AM64L-G09RevD.01 24-Apr-2013

 ----------------------------------------------------------------------
 #p b3lyp/6-31G(d) scrf=(iefpcm,read,solvent=Water) geom=allcheck guess
 =read
 ----------------------------------------------------------------------

 Structure from the checkpoint file:  "SM37.n.11.pdb.xyz.mst.n.w.chk"
 -----------------
 SM37.n.11.pdb.xyz
 -----------------
 Charge =  0 Multiplicity = 1

                         Standard orientation:
 ---------------------------------------------------------------------
 Center     Atomic      Atomic             Coordinates (Angstroms)
 Number     Number       Type             X           Y           Z
 ---------------------------------------------------------------------
      1          8           0       -2.507016    0.632253   -1.334175
      2         16           0       -2.243476   -0.546749   -0.489339
      3          7           0       -1.216960   -0.037845    0.716028
      4          6           0       -0.134562    0.932622    0.481381
      5          6           0       -0.632430    2.388955    0.334590
      6         16           0        0.670476    2.782135   -0.942283
      7          8           0        1.941748    3.265071   -0.246022
      8          6           0        0.601405    0.915555   -0.889216
      9          6           0        0.835393    0.848220    1.677111
     10          6           0        1.510598   -0.507028    1.981337
     11          6           0        2.480496   -1.030787    0.941352
     12          6           0        3.733072   -0.426230    0.757015
     13          6           0        4.626844   -0.909310   -0.199724
     14          6           0        4.285881   -2.013041   -0.984799
     15          6           0        3.046736   -2.629118   -0.805350
     16          6           0        2.154990   -2.140628    0.152183
     17          7           0       -3.542964   -1.002249    0.469147
     18          6           0       -4.217586    0.123090    1.134343
     19          6           0       -4.472141   -1.955005   -0.167983
     20          8           0       -1.779287   -1.767076   -1.167069
     21          1           0       -0.964765   -0.832312    1.304705
     22          1           0       -0.582635    3.028275    1.216829
     23          1           0       -1.605537    2.452817   -0.151349
     24          1           0        1.580105    0.445662   -0.938207
     25          1           0       -0.031536    0.594143   -1.717195
     26          1           0        0.273867    1.153175    2.566850
     27          1           0        1.597838    1.614591    1.505599
     28          1           0        0.756939   -1.276820    2.177690
     29          1           0        2.043526   -0.372306    2.929668
     30          1           0        4.010088    0.429141    1.367178
     31          1           0        5.591099   -0.428188   -0.326515
     32          1           0        4.981955   -2.389998   -1.727102
     33          1           0        2.772809   -3.491080   -1.407449
     34          1           0        1.189204   -2.620363    0.286026
     35          1           0       -3.469625    0.757465    1.609548
     36          1           0       -4.868511   -0.293221    1.904573
     37          1           0       -4.820366    0.718217    0.439144
     38          1           0       -3.908009   -2.776909   -0.603725
     39          1           0       -5.092145   -1.481361   -0.939885
     40          1           0       -5.122582   -2.342208    0.618041
 ---------------------------------------------------------------------

 SCF Done:  E(RB3LYP) =  -1638.85225351     A.U. after   11 cycles

 The electronic state is 1-A.
 Alpha  occ. eigenvalues --  -89.14024 -88.98479 -19.15620 -19.15584 -19.11743
 Alpha  occ. eigenvalues --  -14.38011 -14.37591 -10.26385 -10.22016 -10.21874
 Alpha  occ. eigenvalues --  -10.21265 -10.21177 -10.19903 -10.19700 -10.19619
 Alpha  occ. eigenvalues --  -10.19147 -10.19129 -10.18977 -10.18939 -10.18936
 Alpha  occ. eigenvalues --   -8.16253  -8.03308  -6.12728  -6.12690  -6.12641
 Alpha  occ. eigenvalues --   -5.99727  -5.99518  -5.99087  -1.13138  -1.01153
 Alpha  occ. eigenvalues --   -1.00568  -0.95290  -0.93642  -0.85880  -0.84532
 Alpha  occ. eigenvalues --   -0.79171  -0.74498  -0.74361  -0.72525  -0.71282
 Alpha  occ. eigenvalues --   -0.69752  -0.67262  -0.62466  -0.61198  -0.60414
 Alpha  occ. eigenvalues --   -0.57992  -0.56122  -0.54602  -0.52079  -0.51587
 Alpha  occ. eigenvalues --   -0.50684  -0.48641  -0.47375  -0.46898  -0.46175
 Alpha  occ. eigenvalues --   -0.45696  -0.45129  -0.44911  -0.43606  -0.42569
 Alpha  occ. eigenvalues --   -0.41840  -0.41567  -0.41327  -0.40716  -0.40025
 Alpha  occ. eigenvalues --   -0.38870  -0.38771  -0.38337  -0.37319  -0.36931
 Alpha  occ. eigenvalues --   -0.35933  -0.35630  -0.35159  -0.33811  -0.33428
 Alpha  occ. eigenvalues --   -0.33289  -0.32731  -0.31267  -0.28164  -0.26472
 Alpha  occ. eigenvalues --   -0.26065  -0.25343  -0.24632  -0.23274
 Alpha virt. eigenvalues --   -0.00752  -0.00369   0.01065   0.03312   0.04985
 Alpha virt. eigenvalues --    0.06211   0.06925   0.07921   0.09280   0.09652
 Alpha virt. eigenvalues --    0.10673   0.10990   0.11216   0.12817   0.13473

 Mulliken charges:
               1
     1  O   -0.591729
     2  S    1.321637
     3  N   -0.738510
     4  C    0.224363
     5  C   -0.470631
     6  S    0.743914
     7  O   -0.690768
     8  C   -0.487949
     9  C   -0.309457
    10  C   -0.382051
    11  C    0.160194
    12  C   -0.192318
    13  C   -0.146652
    14  C   -0.151362
    15  C   -0.145824
    16  C   -0.202429
    17  N   -0.528111
    18  C   -0.328395
    19  C   -0.325759
    20  O   -0.564008
    21  H    0.398805
    22  H    0.207075
    23  H    0.223317
    24  H    0.218932
    25  H    0.217664
    26  H    0.167194
    27  H    0.184897
    28  H    0.161488
    29  H    0.174062
    30  H    0.146700
    31  H    0.150479
    32  H    0.149299
    33  H    0.150322
    34  H    0.144357
    35  H    0.194259
    36  H    0.187153
    37  H    0.172808
    38  H    0.197053
    39  H    0.171782
    40  H    0.188202
 Sum of Mulliken charges =   0.00000

 Dipole moment (field-independent basis, Debye):
    X=             -4.7209    Y=             -3.0972    Z=              5.0003  Tot=              7.5421
 Quadrupole moment (field-independent basis, Debye-Ang):
   XX=           -116.8094   YY=           -145.3061   ZZ=           -130.0741
   XY=             -7.6639   XZ=            -10.9051   YZ=              2.5921

 Normal termination of Gaussian 09 at Sat Aug  8 02:47:16 2020.
