 Gaussian 09, Revision D.01,

 -----------------
 #p b3lyp/6-31G(d)
 -----------------

 ----------------
 SM37.n.6.pdb.xyz
 ----------------
 Symbolic Z-matrix:
 Charge =  0 Multiplicity = 1

 SCF Done:  E(RB3LYP) =  -1638.83228159     A.U. after   16 cycles
 Normal termination of Gaussian 09 at Sat Aug  8 02:42:24 2020.
 Gaussian 09:  AM64L-G09RevD.01 24-Apr-2013

 ----------------------------------------------------------------------
 #p b3lyp/6-31G(d) scrf=(iefpcm,read,solvent=Water) geom=allcheck guess
 =read
 ----------------------------------------------------------------------

 Structure from the checkpoint file:  "SM37.n.6.pdb.xyz.mst.n.w.chk"
 ----------------
 SM37.n.6.pdb.xyz
 ----------------
 Charge =  0 Multiplicity = 1

                         Standard orientation:
 ---------------------------------------------------------------------
 Center     Atomic      Atomic             Coordinates (Angstroms)
 Number     Number       Type             X           Y           Z
 ---------------------------------------------------------------------
      1          8           0       -3.337022   -1.626050    1.752517
      2         16           0       -2.883170   -0.684102    0.716254
      3          7           0       -1.222280   -0.796717    0.706909
      4          6           0       -0.343189    0.317492    0.285947
      5          6           0       -0.475884    1.620985    1.123567
      6         16           0       -0.939827    2.657831   -0.356716
      7          8           0        0.239214    3.528161   -0.784365
      8          6           0       -0.762624    0.941465   -1.069902
      9          6           0        1.074387   -0.285356    0.284810
     10          6           0        2.212429    0.662221   -0.133888
     11          6           0        3.554331   -0.037208   -0.096366
     12          6           0        4.005448   -0.787790   -1.190928
     13          6           0        5.230723   -1.453712   -1.145555
     14          6           0        6.027905   -1.379701   -0.001313
     15          6           0        5.590434   -0.633532    1.095072
     16          6           0        4.363910    0.030636    1.044374
     17          7           0       -3.248502   -1.210146   -0.841467
     18          6           0       -2.868022   -2.607756   -1.096682
     19          6           0       -4.628235   -0.897425   -1.260978
     20          8           0       -3.348660    0.710554    0.785451
     21          1           0       -0.925678   -1.229855    1.584440
     22          1           0        0.448192    1.990448    1.571072
     23          1           0       -1.281357    1.619477    1.855310
     24          1           0        0.009723    0.931762   -1.839194
     25          1           0       -1.703417    0.576406   -1.478701
     26          1           0        1.061913   -1.153250   -0.382118
     27          1           0        1.283485   -0.661426    1.292860
     28          1           0        2.240231    1.531179    0.530599
     29          1           0        2.026679    1.043267   -1.142290
     30          1           0        3.394228   -0.845002   -2.086872
     31          1           0        5.565091   -2.026760   -2.005543
     32          1           0        6.982757   -1.893827    0.034162
     33          1           0        6.204868   -0.563707    1.987611
     34          1           0        4.030402    0.614306    1.898408
     35          1           0       -1.836431   -2.761733   -0.780795
     36          1           0       -2.938148   -2.775433   -2.172632
     37          1           0       -3.522957   -3.319224   -0.580583
     38          1           0       -4.833136    0.155394   -1.074548
     39          1           0       -5.372294   -1.517210   -0.746677
     40          1           0       -4.688656   -1.089665   -2.332989
 ---------------------------------------------------------------------

 SCF Done:  E(RB3LYP) =  -1638.85551561     A.U. after   11 cycles

 The electronic state is 1-A.
 Alpha  occ. eigenvalues --  -89.14044 -88.98386 -19.15891 -19.15763 -19.11701
 Alpha  occ. eigenvalues --  -14.37950 -14.37578 -10.26443 -10.21989 -10.21814
 Alpha  occ. eigenvalues --  -10.21326 -10.21175 -10.19861 -10.19859 -10.19285
 Alpha  occ. eigenvalues --  -10.19068 -10.19056 -10.18913 -10.18885 -10.18875
 Alpha  occ. eigenvalues --   -8.16290  -8.03191  -6.12772  -6.12724  -6.12669
 Alpha  occ. eigenvalues --   -5.99615  -5.99415  -5.98958  -1.13273  -1.01468
 Alpha  occ. eigenvalues --   -1.00426  -0.95107  -0.93712  -0.85838  -0.84138
 Alpha  occ. eigenvalues --   -0.79144  -0.74423  -0.74354  -0.72505  -0.71322
 Alpha  occ. eigenvalues --   -0.70031  -0.67361  -0.62329  -0.60513  -0.60409
 Alpha  occ. eigenvalues --   -0.57916  -0.56043  -0.53936  -0.52824  -0.51522
 Alpha  occ. eigenvalues --   -0.50557  -0.48475  -0.48102  -0.47463  -0.46184
 Alpha  occ. eigenvalues --   -0.45287  -0.45224  -0.44535  -0.43677  -0.42103
 Alpha  occ. eigenvalues --   -0.41883  -0.41772  -0.40813  -0.40771  -0.40116
 Alpha  occ. eigenvalues --   -0.40049  -0.38742  -0.38134  -0.37395  -0.36320
 Alpha  occ. eigenvalues --   -0.35404  -0.35146  -0.34846  -0.34280  -0.33566
 Alpha  occ. eigenvalues --   -0.33046  -0.33000  -0.31605  -0.28802  -0.26600
 Alpha  occ. eigenvalues --   -0.26007  -0.25264  -0.24574  -0.23120
 Alpha virt. eigenvalues --   -0.00376  -0.00291   0.01124   0.02509   0.05541
 Alpha virt. eigenvalues --    0.06271   0.06659   0.07407   0.08914   0.09118
 Alpha virt. eigenvalues --    0.10068   0.11099   0.11327   0.12138   0.13123

 Mulliken charges:
               1
     1  O   -0.568586
     2  S    1.347060
     3  N   -0.745448
     4  C    0.236230
     5  C   -0.487565
     6  S    0.759492
     7  O   -0.697401
     8  C   -0.510380
     9  C   -0.291116
    10  C   -0.374485
    11  C    0.159551
    12  C   -0.195513
    13  C   -0.149945
    14  C   -0.151561
    15  C   -0.149578
    16  C   -0.197658
    17  N   -0.524276
    18  C   -0.329455
    19  C   -0.329852
    20  O   -0.592141
    21  H    0.406936
    22  H    0.211783
    23  H    0.218441
    24  H    0.215427
    25  H    0.231504
    26  H    0.170949
    27  H    0.164922
    28  H    0.163527
    29  H    0.164257
    30  H    0.144179
    31  H    0.149238
    32  H    0.148347
    33  H    0.149315
    34  H    0.143954
    35  H    0.195051
    36  H    0.186713
    37  H    0.170614
    38  H    0.197072
    39  H    0.170975
    40  H    0.189421
 Sum of Mulliken charges =   0.00000

 Dipole moment (field-independent basis, Debye):
    X=              0.6927    Y=             -6.5161    Z=             -1.4439  Tot=              6.7100
 Quadrupole moment (field-independent basis, Debye-Ang):
   XX=           -132.8705   YY=           -152.3093   ZZ=           -125.7492
   XY=             -1.4884   XZ=             19.6067   YZ=             13.9929

 Normal termination of Gaussian 09 at Sat Aug  8 02:47:22 2020.
