 Gaussian 09, Revision D.01,

 -----------------
 #p b3lyp/6-31G(d)
 -----------------

 -----------------
 SM38.n.14.pdb.xyz
 -----------------
 Symbolic Z-matrix:
 Charge =  0 Multiplicity = 1

 SCF Done:  E(RB3LYP) =  -1619.38343865     A.U. after   16 cycles
 Normal termination of Gaussian 09 at Sat Aug  8 00:08:57 2020.
 Gaussian 09:  AM64L-G09RevD.01 24-Apr-2013

 ----------------------------------------------------------------------
 #p b3lyp/6-31G(d) scrf=(iefpcm,read,solvent=n-Octanol) geom=allcheck g
 uess=read
 ----------------------------------------------------------------------

 Structure from the checkpoint file:  "SM38.n.14.pdb.xyz.mst.n.o.chk"
 -----------------
 SM38.n.14.pdb.xyz
 -----------------
 Charge =  0 Multiplicity = 1

                         Standard orientation:
 ---------------------------------------------------------------------
 Center     Atomic      Atomic             Coordinates (Angstroms)
 Number     Number       Type             X           Y           Z
 ---------------------------------------------------------------------
      1          6           0        4.081022   -0.389513   -0.233886
      2         16           0        2.643862   -1.471045   -0.125742
      3          7           0        1.300583   -0.593539   -0.613706
      4          6           0        0.620391    0.448214    0.166023
      5          6           0       -0.467686    1.127038   -0.735732
      6         16           0        0.093256    2.777069   -0.195218
      7          6           0        1.456755    1.752993    0.452202
      8          8           0        0.488362    3.660266   -1.303387
      9          8           0       -0.752256    3.303863    0.888809
     10          6           0        0.025546   -0.092987    1.481961
     11          6           0       -0.825133   -1.372235    1.378864
     12          6           0       -2.112493   -1.265119    0.589748
     13          6           0       -2.246182   -1.915700   -0.642783
     14          6           0       -3.426877   -1.825000   -1.380742
     15          6           0       -4.499866   -1.077840   -0.893870
     16          6           0       -4.384369   -0.429874    0.338182
     17          6           0       -3.203001   -0.526623    1.073148
     18          8           0        2.805961   -2.511931   -1.142056
     19          8           0        2.457670   -1.814556    1.286525
     20          1           0        4.205734   -0.064434   -1.266868
     21          1           0        4.941744   -0.980279    0.082543
     22          1           0        3.946458    0.458691    0.433273
     23          1           0        1.312900   -0.459638   -1.622708
     24          1           0       -1.500082    0.902310   -0.482004
     25          1           0       -0.302195    1.014716   -1.809048
     26          1           0        1.703450    1.953901    1.494321
     27          1           0        2.333108    1.869071   -0.186400
     28          1           0       -0.557171    0.720358    1.927300
     29          1           0        0.856047   -0.301657    2.159384
     30          1           0       -1.055715   -1.674652    2.407050
     31          1           0       -0.205297   -2.163504    0.952389
     32          1           0       -1.411085   -2.496837   -1.021869
     33          1           0       -3.509052   -2.337976   -2.333159
     34          1           0       -5.420655   -1.003195   -1.465060
     35          1           0       -5.215431    0.146207    0.729398
     36          1           0       -3.127276   -0.025950    2.034948
 ---------------------------------------------------------------------

 SCF Done:  E(RB3LYP) =  -1619.41351886     A.U. after   11 cycles

 The electronic state is 1-A.
 Alpha  occ. eigenvalues --  -89.13001 -89.10207 -19.15814 -19.15718 -19.15617
 Alpha  occ. eigenvalues --  -19.15595 -14.38659 -10.28605 -10.23819 -10.23745
 Alpha  occ. eigenvalues --  -10.23386 -10.20130 -10.19891 -10.19306 -10.19239
 Alpha  occ. eigenvalues --  -10.19162 -10.19126 -10.19077 -10.18957  -8.15487
 Alpha  occ. eigenvalues --   -8.13267  -6.12003  -6.11908  -6.11777  -6.09700
 Alpha  occ. eigenvalues --   -6.09620  -6.09541  -1.12672  -1.11122  -1.01628
 Alpha  occ. eigenvalues --   -1.00855  -0.95550  -0.86573  -0.85726  -0.79531
 Alpha  occ. eigenvalues --   -0.78196  -0.74622  -0.74299  -0.73223  -0.68587
 Alpha  occ. eigenvalues --   -0.65037  -0.61096  -0.60639  -0.58908  -0.57716
 Alpha  occ. eigenvalues --   -0.55134  -0.53246  -0.51794  -0.50939  -0.49707
 Alpha  occ. eigenvalues --   -0.49049  -0.48081  -0.47383  -0.46377  -0.46277
 Alpha  occ. eigenvalues --   -0.45791  -0.44867  -0.44263  -0.43866  -0.42688
 Alpha  occ. eigenvalues --   -0.42446  -0.41853  -0.40683  -0.39074  -0.37832
 Alpha  occ. eigenvalues --   -0.36401  -0.35697  -0.34984  -0.33911  -0.33792
 Alpha  occ. eigenvalues --   -0.33317  -0.32941  -0.32733  -0.31699  -0.31441
 Alpha  occ. eigenvalues --   -0.31175  -0.30375  -0.28534  -0.25415  -0.24478
 Alpha virt. eigenvalues --   -0.00854  -0.00382   0.02607   0.03043   0.04091
 Alpha virt. eigenvalues --    0.05233   0.06032   0.06990   0.07900   0.08864
 Alpha virt. eigenvalues --    0.09294   0.10016   0.10713   0.11383   0.11904

 Mulliken charges:
               1
     1  C   -0.635174
     2  S    1.183391
     3  N   -0.722675
     4  C    0.195440
     5  C   -0.513434
     6  S    1.107462
     7  C   -0.509416
     8  O   -0.529020
     9  O   -0.541005
    10  C   -0.288630
    11  C   -0.351397
    12  C    0.144110
    13  C   -0.193828
    14  C   -0.135059
    15  C   -0.141660
    16  C   -0.134605
    17  C   -0.194265
    18  O   -0.537179
    19  O   -0.552141
    20  H    0.218561
    21  H    0.235749
    22  H    0.212223
    23  H    0.382152
    24  H    0.246058
    25  H    0.215703
    26  H    0.230969
    27  H    0.213806
    28  H    0.168338
    29  H    0.182998
    30  H    0.160268
    31  H    0.176186
    32  H    0.140615
    33  H    0.141815
    34  H    0.141559
    35  H    0.143354
    36  H    0.138733
 Sum of Mulliken charges =   0.00000

 Dipole moment (field-independent basis, Debye):
    X=              2.0500    Y=             -0.3580    Z=             -1.0600  Tot=              2.3354
 Quadrupole moment (field-independent basis, Debye-Ang):
   XX=           -107.4175   YY=           -164.0284   ZZ=           -124.1875
   XY=             13.7620   XZ=              2.0144   YZ=              4.2169

 Normal termination of Gaussian 09 at Sat Aug  8 00:12:54 2020.
