 Gaussian 09, Revision D.01,

 -----------------
 #p b3lyp/6-31G(d)
 -----------------

 -----------------
 SM38.n.11.pdb.xyz
 -----------------
 Symbolic Z-matrix:
 Charge =  0 Multiplicity = 1

 SCF Done:  E(RB3LYP) =  -1619.38212930     A.U. after   16 cycles
 Normal termination of Gaussian 09 at Fri Aug  7 23:59:41 2020.
 Gaussian 09:  AM64L-G09RevD.01 24-Apr-2013

 ----------------------------------------------------------------------
 #p b3lyp/6-31G(d) scrf=(iefpcm,read,solvent=n-Octanol) geom=allcheck g
 uess=read
 ----------------------------------------------------------------------

 Structure from the checkpoint file:  "SM38.n.11.pdb.xyz.mst.n.o.chk"
 -----------------
 SM38.n.11.pdb.xyz
 -----------------
 Charge =  0 Multiplicity = 1

                         Standard orientation:
 ---------------------------------------------------------------------
 Center     Atomic      Atomic             Coordinates (Angstroms)
 Number     Number       Type             X           Y           Z
 ---------------------------------------------------------------------
      1          6           0       -3.437159   -3.047429   -0.530578
      2         16           0       -3.086695   -1.403895    0.093237
      3          7           0       -1.404132   -1.358291   -0.139291
      4          6           0       -0.652099   -0.087439   -0.058889
      5          6           0       -1.020752    0.860630    1.138394
      6         16           0       -1.285741    2.245821   -0.024302
      7          6           0       -1.010738    0.890421   -1.222733
      8          8           0       -2.660285    2.768078   -0.018461
      9          8           0       -0.159155    3.197373   -0.006121
     10          6           0        0.828892   -0.514557   -0.055984
     11          6           0        1.874631    0.612639   -0.023587
     12          6           0        3.280752    0.051497   -0.006086
     13          6           0        3.930284   -0.292749   -1.199034
     14          6           0        5.214639   -0.836056   -1.182582
     15          6           0        5.871615   -1.044707    0.031212
     16          6           0        5.236348   -0.702774    1.225945
     17          6           0        3.950970   -0.159166    1.204607
     18          8           0       -3.676058   -0.397613   -0.797841
     19          8           0       -3.433483   -1.366414    1.523898
     20          1           0       -3.149274   -3.094408   -1.578976
     21          1           0       -4.511854   -3.197124   -0.414300
     22          1           0       -2.893338   -3.781155    0.062339
     23          1           0       -0.989001   -2.054924    0.484689
     24          1           0       -0.215970    1.058211    1.845112
     25          1           0       -1.938558    0.590776    1.660492
     26          1           0       -0.206637    1.103387   -1.926162
     27          1           0       -1.937906    0.637947   -1.731776
     28          1           0        0.990140   -1.137228   -0.942349
     29          1           0        0.990725   -1.158995    0.816652
     30          1           0        1.720301    1.238398    0.859678
     31          1           0        1.749319    1.265305   -0.891694
     32          1           0        3.426836   -0.126852   -2.147704
     33          1           0        5.703283   -1.092927   -2.117238
     34          1           0        6.872321   -1.463655    0.046319
     35          1           0        5.741316   -0.854627    2.173931
     36          1           0        3.463756    0.111832    2.137171
 ---------------------------------------------------------------------

 SCF Done:  E(RB3LYP) =  -1619.41425748     A.U. after   11 cycles

 The electronic state is 1-A.
 Alpha  occ. eigenvalues --  -89.12922 -89.09464 -19.15897 -19.15779 -19.15016
 Alpha  occ. eigenvalues --  -19.14905 -14.38546 -10.28319 -10.23488 -10.22996
 Alpha  occ. eigenvalues --  -10.22798 -10.21228 -10.20169 -10.20098 -10.19293
 Alpha  occ. eigenvalues --  -10.19279 -10.19186 -10.19180 -10.19133  -8.15534
 Alpha  occ. eigenvalues --   -8.12527  -6.12034  -6.11940  -6.11819  -6.08960
 Alpha  occ. eigenvalues --   -6.08880  -6.08800  -1.12616  -1.10339  -1.01418
 Alpha  occ. eigenvalues --   -1.00041  -0.95517  -0.86496  -0.85711  -0.79993
 Alpha  occ. eigenvalues --   -0.78662  -0.74675  -0.74361  -0.72617  -0.68734
 Alpha  occ. eigenvalues --   -0.63022  -0.62278  -0.60840  -0.58531  -0.57293
 Alpha  occ. eigenvalues --   -0.54825  -0.52773  -0.51361  -0.50896  -0.49830
 Alpha  occ. eigenvalues --   -0.49327  -0.48308  -0.47755  -0.46101  -0.45711
 Alpha  occ. eigenvalues --   -0.44944  -0.44753  -0.44167  -0.43819  -0.42882
 Alpha  occ. eigenvalues --   -0.42192  -0.41441  -0.40728  -0.39659  -0.37923
 Alpha  occ. eigenvalues --   -0.36536  -0.35798  -0.35465  -0.34180  -0.34132
 Alpha  occ. eigenvalues --   -0.33831  -0.32838  -0.32324  -0.31989  -0.31530
 Alpha  occ. eigenvalues --   -0.30220  -0.29705  -0.27835  -0.25382  -0.24725
 Alpha virt. eigenvalues --   -0.00584  -0.00462   0.02528   0.03906   0.04630
 Alpha virt. eigenvalues --    0.05207   0.05865   0.06421   0.07543   0.08499
 Alpha virt. eigenvalues --    0.09274   0.09460   0.10549   0.10617   0.11478

 Mulliken charges:
               1
     1  C   -0.634143
     2  S    1.175686
     3  N   -0.712827
     4  C    0.192594
     5  C   -0.522729
     6  S    1.121981
     7  C   -0.503045
     8  O   -0.529771
     9  O   -0.554745
    10  C   -0.300220
    11  C   -0.380145
    12  C    0.165859
    13  C   -0.185862
    14  C   -0.139123
    15  C   -0.139904
    16  C   -0.138973
    17  C   -0.187865
    18  O   -0.547479
    19  O   -0.540405
    20  H    0.229907
    21  H    0.234107
    22  H    0.222238
    23  H    0.372661
    24  H    0.219541
    25  H    0.243116
    26  H    0.217066
    27  H    0.252392
    28  H    0.176727
    29  H    0.163224
    30  H    0.166563
    31  H    0.168807
    32  H    0.134981
    33  H    0.141970
    34  H    0.141160
    35  H    0.141964
    36  H    0.134688
 Sum of Mulliken charges =   0.00000

 Dipole moment (field-independent basis, Debye):
    X=              4.3439    Y=             -9.4341    Z=             -0.9683  Tot=             10.4312
 Quadrupole moment (field-independent basis, Debye-Ang):
   XX=           -138.1857   YY=           -133.3822   ZZ=           -119.2996
   XY=             15.9814   XZ=              5.5223   YZ=              3.0908

 Normal termination of Gaussian 09 at Sat Aug  8 00:03:19 2020.
