 Gaussian 09, Revision D.01,

 -----------------
 #p b3lyp/6-31G(d)
 -----------------

 ----------------
 SM38.n.1.pdb.xyz
 ----------------
 Symbolic Z-matrix:
 Charge =  0 Multiplicity = 1

 SCF Done:  E(RB3LYP) =  -1619.38446278     A.U. after   16 cycles
 Normal termination of Gaussian 09 at Fri Aug  7 23:29:32 2020.
 Gaussian 09:  AM64L-G09RevD.01 24-Apr-2013

 ----------------------------------------------------------------------
 #p b3lyp/6-31G(d) scrf=(iefpcm,read,solvent=Water) geom=allcheck guess
 =read
 ----------------------------------------------------------------------

 Structure from the checkpoint file:  "SM38.n.1.pdb.xyz.mst.n.w.chk"
 ----------------
 SM38.n.1.pdb.xyz
 ----------------
 Charge =  0 Multiplicity = 1

                         Standard orientation:
 ---------------------------------------------------------------------
 Center     Atomic      Atomic             Coordinates (Angstroms)
 Number     Number       Type             X           Y           Z
 ---------------------------------------------------------------------
      1          6           0        4.057869   -1.068840   -1.051442
      2         16           0        2.517511   -1.485848   -0.240052
      3          7           0        2.141316   -0.017810    0.508818
      4          6           0        0.723740    0.362618    0.725332
      5          6           0        0.080190    0.779470   -0.636336
      6         16           0        0.458857    2.525323   -0.289851
      7          6           0        0.773875    1.792931    1.351477
      8          8           0        1.698524    2.983770   -0.949160
      9          8           0       -0.716725    3.418194   -0.330031
     10          6           0       -0.037511   -0.678850    1.566384
     11          6           0       -1.518024   -0.401589    1.896478
     12          6           0       -2.507586   -0.656215    0.776353
     13          6           0       -2.581313   -1.911758    0.154678
     14          6           0       -3.510299   -2.157355   -0.856186
     15          6           0       -4.388532   -1.149345   -1.263878
     16          6           0       -4.327911    0.103268   -0.651616
     17          6           0       -3.395722    0.344916    0.359628
     18          8           0        1.479170   -1.739355   -1.253306
     19          8           0        2.794148   -2.539250    0.753380
     20          1           0        3.868775   -0.269860   -1.766651
     21          1           0        4.406858   -1.971082   -1.555082
     22          1           0        4.776550   -0.755052   -0.295455
     23          1           0        2.682181    0.047881    1.375030
     24          1           0       -0.999249    0.645136   -0.650701
     25          1           0        0.541419    0.374414   -1.532171
     26          1           0       -0.063316    2.008630    2.015271
     27          1           0        1.717283    2.093373    1.806380
     28          1           0        0.513706   -0.785015    2.506734
     29          1           0        0.036022   -1.641143    1.053010
     30          1           0       -1.646379    0.620500    2.267333
     31          1           0       -1.771938   -1.054911    2.738694
     32          1           0       -1.906324   -2.703017    0.465144
     33          1           0       -3.551690   -3.136078   -1.324155
     34          1           0       -5.113190   -1.339498   -2.050452
     35          1           0       -5.005209    0.893667   -0.959450
     36          1           0       -3.350197    1.322755    0.830934
 ---------------------------------------------------------------------

 SCF Done:  E(RB3LYP) =  -1619.41382049     A.U. after   11 cycles

 The electronic state is 1-A.
 Alpha  occ. eigenvalues --  -89.12495 -89.09682 -19.15605 -19.15440 -19.15406
 Alpha  occ. eigenvalues --  -19.15266 -14.37601 -10.27722 -10.23228 -10.22408
 Alpha  occ. eigenvalues --  -10.22382 -10.20112 -10.20097 -10.19729 -10.19250
 Alpha  occ. eigenvalues --  -10.19233 -10.19079 -10.19069 -10.19041  -8.15070
 Alpha  occ. eigenvalues --   -8.12753  -6.11571  -6.11503  -6.11334  -6.09201
 Alpha  occ. eigenvalues --   -6.09103  -6.09005  -1.12102  -1.10545  -1.00979
 Alpha  occ. eigenvalues --   -1.00234  -0.94932  -0.86261  -0.85451  -0.79553
 Alpha  occ. eigenvalues --   -0.77761  -0.74640  -0.73974  -0.72383  -0.68068
 Alpha  occ. eigenvalues --   -0.63825  -0.61311  -0.60472  -0.58360  -0.57247
 Alpha  occ. eigenvalues --   -0.54213  -0.52208  -0.51508  -0.50464  -0.49427
 Alpha  occ. eigenvalues --   -0.49071  -0.47894  -0.46454  -0.46332  -0.45372
 Alpha  occ. eigenvalues --   -0.44507  -0.44212  -0.43445  -0.43017  -0.42280
 Alpha  occ. eigenvalues --   -0.41931  -0.41412  -0.41119  -0.39586  -0.37271
 Alpha  occ. eigenvalues --   -0.36687  -0.35601  -0.35284  -0.34189  -0.33823
 Alpha  occ. eigenvalues --   -0.33147  -0.32962  -0.32507  -0.31899  -0.31161
 Alpha  occ. eigenvalues --   -0.30647  -0.29469  -0.27873  -0.25461  -0.24522
 Alpha virt. eigenvalues --   -0.00791  -0.00540   0.03247   0.04157   0.05174
 Alpha virt. eigenvalues --    0.06183   0.06759   0.07475   0.08604   0.09123
 Alpha virt. eigenvalues --    0.09805   0.10031   0.10442   0.11917   0.12687

 Mulliken charges:
               1
     1  C   -0.622696
     2  S    1.200243
     3  N   -0.719498
     4  C    0.152774
     5  C   -0.482357
     6  S    1.105551
     7  C   -0.495182
     8  O   -0.563449
     9  O   -0.562775
    10  C   -0.288756
    11  C   -0.373047
    12  C    0.147701
    13  C   -0.189596
    14  C   -0.147151
    15  C   -0.151091
    16  C   -0.141876
    17  C   -0.209316
    18  O   -0.588471
    19  O   -0.569749
    20  H    0.228229
    21  H    0.233359
    22  H    0.229663
    23  H    0.411931
    24  H    0.227110
    25  H    0.244547
    26  H    0.231647
    27  H    0.237773
    28  H    0.170887
    29  H    0.187851
    30  H    0.163021
    31  H    0.180602
    32  H    0.150073
    33  H    0.151498
    34  H    0.150384
    35  H    0.151630
    36  H    0.148534
 Sum of Mulliken charges =   0.00000

 Dipole moment (field-independent basis, Debye):
    X=              2.1457    Y=             -2.0592    Z=              4.3819  Tot=              5.2958
 Quadrupole moment (field-independent basis, Debye-Ang):
   XX=           -107.1180   YY=           -157.0880   ZZ=           -117.1540
   XY=              2.8881   XZ=              3.4201   YZ=             13.1080

 Normal termination of Gaussian 09 at Fri Aug  7 23:33:56 2020.
