 Gaussian 09, Revision D.01,

 -----------------
 #p b3lyp/6-31G(d)
 -----------------

 -----------------
 SM38.n.15.pdb.xyz
 -----------------
 Symbolic Z-matrix:
 Charge =  0 Multiplicity = 1

 SCF Done:  E(RB3LYP) =  -1619.38368347     A.U. after   16 cycles
 Normal termination of Gaussian 09 at Sat Aug  8 00:09:11 2020.
 Gaussian 09:  AM64L-G09RevD.01 24-Apr-2013

 ----------------------------------------------------------------------
 #p b3lyp/6-31G(d) scrf=(iefpcm,read,solvent=n-Octanol) geom=allcheck g
 uess=read
 ----------------------------------------------------------------------

 Structure from the checkpoint file:  "SM38.n.15.pdb.xyz.mst.n.o.chk"
 -----------------
 SM38.n.15.pdb.xyz
 -----------------
 Charge =  0 Multiplicity = 1

                         Standard orientation:
 ---------------------------------------------------------------------
 Center     Atomic      Atomic             Coordinates (Angstroms)
 Number     Number       Type             X           Y           Z
 ---------------------------------------------------------------------
      1          6           0        3.468487   -2.047132    1.526941
      2         16           0        3.084137   -1.510162   -0.140986
      3          7           0        1.406911   -1.360437   -0.124823
      4          6           0        0.672764   -0.086519   -0.082405
      5          6           0        1.002760    0.943729   -1.223295
      6         16           0        1.250713    2.262453    0.015682
      7          6           0        1.086878    0.815400    1.124903
      8          8           0        2.593951    2.857300    0.010869
      9          8           0        0.079148    3.153104    0.110561
     10          6           0       -0.812742   -0.505491   -0.049338
     11          6           0       -1.861723    0.618434   -0.013432
     12          6           0       -3.263987    0.049236    0.003992
     13          6           0       -3.911329   -0.219865    1.216352
     14          6           0       -5.192433   -0.771109    1.237903
     15          6           0       -5.848801   -1.062940    0.041003
     16          6           0       -5.215225   -0.797126   -1.174308
     17          6           0       -3.934393   -0.245657   -1.190772
     18          8           0        3.688310   -0.185712   -0.338321
     19          8           0        3.383040   -2.615947   -1.056924
     20          1           0        3.135132   -1.286386    2.232550
     21          1           0        4.550379   -2.168885    1.583997
     22          1           0        2.963614   -2.992972    1.710323
     23          1           0        1.014611   -2.037769   -0.776277
     24          1           0        0.196090    1.160583   -1.922083
     25          1           0        1.940915    0.736625   -1.734381
     26          1           0        0.338651    0.942757    1.906234
     27          1           0        2.059479    0.573708    1.550788
     28          1           0       -0.946140   -1.155685    0.821091
     29          1           0       -1.001644   -1.123550   -0.934117
     30          1           0       -1.738951    1.268829   -0.883653
     31          1           0       -1.710727    1.247134    0.866880
     32          1           0       -3.407746    0.011884    2.151563
     33          1           0       -5.679252   -0.968292    2.187345
     34          1           0       -6.846301   -1.488629    0.054907
     35          1           0       -5.720910   -1.014478   -2.110661
     36          1           0       -3.450322   -0.034181   -2.140600
 ---------------------------------------------------------------------

 SCF Done:  E(RB3LYP) =  -1619.41529691     A.U. after   11 cycles

 The electronic state is 1-A.
 Alpha  occ. eigenvalues --  -89.12969 -89.09646 -19.15904 -19.15844 -19.15160
 Alpha  occ. eigenvalues --  -19.15016 -14.38221 -10.28452 -10.23577 -10.23212
 Alpha  occ. eigenvalues --  -10.22950 -10.21134 -10.20097 -10.19920 -10.19249
 Alpha  occ. eigenvalues --  -10.19235 -10.19134 -10.19125 -10.19087  -8.15509
 Alpha  occ. eigenvalues --   -8.12706  -6.12027  -6.11937  -6.11772  -6.09138
 Alpha  occ. eigenvalues --   -6.09058  -6.08982  -1.12717  -1.10526  -1.01732
 Alpha  occ. eigenvalues --   -1.00193  -0.95302  -0.86391  -0.85658  -0.79970
 Alpha  occ. eigenvalues --   -0.78469  -0.74626  -0.74369  -0.72833  -0.68927
 Alpha  occ. eigenvalues --   -0.63041  -0.62397  -0.60772  -0.58564  -0.57491
 Alpha  occ. eigenvalues --   -0.54340  -0.53309  -0.51380  -0.50841  -0.50128
 Alpha  occ. eigenvalues --   -0.49548  -0.48245  -0.47586  -0.46169  -0.45647
 Alpha  occ. eigenvalues --   -0.45140  -0.44830  -0.44136  -0.43797  -0.43032
 Alpha  occ. eigenvalues --   -0.42145  -0.41506  -0.40620  -0.39852  -0.37798
 Alpha  occ. eigenvalues --   -0.36319  -0.35861  -0.35289  -0.34096  -0.33922
 Alpha  occ. eigenvalues --   -0.33274  -0.33097  -0.32299  -0.32128  -0.31799
 Alpha  occ. eigenvalues --   -0.30384  -0.30081  -0.27929  -0.25340  -0.24644
 Alpha virt. eigenvalues --   -0.00514  -0.00417   0.02510   0.03491   0.04943
 Alpha virt. eigenvalues --    0.05674   0.05864   0.06436   0.07159   0.08685
 Alpha virt. eigenvalues --    0.09328   0.09809   0.10341   0.10844   0.11391

 Mulliken charges:
               1
     1  C   -0.621270
     2  S    1.191009
     3  N   -0.739399
     4  C    0.217458
     5  C   -0.506768
     6  S    1.135467
     7  C   -0.515936
     8  O   -0.529689
     9  O   -0.553844
    10  C   -0.296091
    11  C   -0.378802
    12  C    0.164880
    13  C   -0.186836
    14  C   -0.138903
    15  C   -0.140206
    16  C   -0.139126
    17  C   -0.186798
    18  O   -0.560465
    19  O   -0.540211
    20  H    0.213634
    21  H    0.229225
    22  H    0.224404
    23  H    0.384226
    24  H    0.218638
    25  H    0.240335
    26  H    0.223372
    27  H    0.225248
    28  H    0.174542
    29  H    0.163121
    30  H    0.166772
    31  H    0.168931
    32  H    0.134221
    33  H    0.141486
    34  H    0.140801
    35  H    0.141518
    36  H    0.135058
 Sum of Mulliken charges =   0.00000

 Dipole moment (field-independent basis, Debye):
    X=             -4.0306    Y=             -6.3012    Z=              2.7794  Tot=              7.9797
 Quadrupole moment (field-independent basis, Debye-Ang):
   XX=           -137.8373   YY=           -149.0202   ZZ=           -112.5724
   XY=             -4.9553   XZ=             13.9381   YZ=             -7.4132

 Normal termination of Gaussian 09 at Sat Aug  8 00:12:46 2020.
