 Gaussian 09, Revision D.01,

 -----------------
 #p b3lyp/6-31G(d)
 -----------------

 -----------------
 SM38.n.13.pdb.xyz
 -----------------
 Symbolic Z-matrix:
 Charge =  0 Multiplicity = 1

 SCF Done:  E(RB3LYP) =  -1619.37909940     A.U. after   16 cycles
 Normal termination of Gaussian 09 at Fri Aug  7 23:29:04 2020.
 Gaussian 09:  AM64L-G09RevD.01 24-Apr-2013

 ----------------------------------------------------------------------
 #p b3lyp/6-31G(d) scrf=(iefpcm,read,solvent=Water) geom=allcheck guess
 =read
 ----------------------------------------------------------------------

 Structure from the checkpoint file:  "SM38.n.13.pdb.xyz.mst.n.w.chk"
 -----------------
 SM38.n.13.pdb.xyz
 -----------------
 Charge =  0 Multiplicity = 1

                         Standard orientation:
 ---------------------------------------------------------------------
 Center     Atomic      Atomic             Coordinates (Angstroms)
 Number     Number       Type             X           Y           Z
 ---------------------------------------------------------------------
      1          6           0        0.443048    3.328512   -0.468366
      2         16           0        1.817435    2.305301    0.076313
      3          7           0        1.751982    0.835334   -0.725217
      4          6           0        0.907357   -0.307228   -0.308195
      5          6           0        1.453923   -0.905345    1.029043
      6         16           0        2.409818   -2.140523    0.093981
      7          6           0        1.329866   -1.497654   -1.230344
      8          8           0        3.819449   -1.740882   -0.092765
      9          8           0        2.129677   -3.538428    0.472166
     10          6           0       -0.595248    0.022052   -0.315252
     11          6           0       -1.556858   -1.122615    0.051291
     12          6           0       -2.997866   -0.658218    0.052686
     13          6           0       -3.757456   -0.668206   -1.125026
     14          6           0       -5.078375   -0.216236   -1.127898
     15          6           0       -5.661181    0.253976    0.051022
     16          6           0       -4.914448    0.267998    1.230843
     17          6           0       -3.593664   -0.184112    1.229361
     18          8           0        3.047362    2.957375   -0.393759
     19          8           0        1.649316    2.023000    1.510254
     20          1           0        0.510526    3.456923   -1.548169
     21          1           0        0.548921    4.288742    0.036813
     22          1           0       -0.492745    2.849675   -0.190989
     23          1           0        1.774151    0.983351   -1.734651
     24          1           0        0.688842   -1.416716    1.611237
     25          1           0        2.040836   -0.234125    1.649025
     26          1           0        0.524228   -2.207369   -1.421560
     27          1           0        1.852495   -1.247886   -2.152323
     28          1           0       -0.848323    0.399655   -1.311273
     29          1           0       -0.757177    0.843428    0.389656
     30          1           0       -1.304782   -1.514430    1.040908
     31          1           0       -1.444573   -1.947412   -0.660456
     32          1           0       -3.312872   -1.039713   -2.044211
     33          1           0       -5.652089   -0.236634   -2.048822
     34          1           0       -6.688541    0.602935    0.050783
     35          1           0       -5.360501    0.626688    2.152781
     36          1           0       -3.019344   -0.176988    2.150920
 ---------------------------------------------------------------------

 SCF Done:  E(RB3LYP) =  -1619.41471999     A.U. after   11 cycles

 The electronic state is 1-A.
 Alpha  occ. eigenvalues --  -89.12777 -89.09928 -19.15734 -19.15671 -19.15451
 Alpha  occ. eigenvalues --  -19.15435 -14.37935 -10.28127 -10.23480 -10.22835
 Alpha  occ. eigenvalues --  -10.22476 -10.20625 -10.20100 -10.19933 -10.19173
 Alpha  occ. eigenvalues --  -10.19158 -10.19047 -10.19035 -10.19018  -8.15286
 Alpha  occ. eigenvalues --   -8.12993  -6.11791  -6.11719  -6.11566  -6.09440
 Alpha  occ. eigenvalues --   -6.09343  -6.09248  -1.12369  -1.10787  -1.01296
 Alpha  occ. eigenvalues --   -1.00474  -0.95150  -0.86260  -0.85636  -0.79870
 Alpha  occ. eigenvalues --   -0.77542  -0.74536  -0.74297  -0.72711  -0.68511
 Alpha  occ. eigenvalues --   -0.64002  -0.61254  -0.60654  -0.58745  -0.57430
 Alpha  occ. eigenvalues --   -0.54731  -0.52685  -0.51224  -0.50599  -0.50056
 Alpha  occ. eigenvalues --   -0.49025  -0.48367  -0.47226  -0.46386  -0.45527
 Alpha  occ. eigenvalues --   -0.44777  -0.44086  -0.43961  -0.43635  -0.43035
 Alpha  occ. eigenvalues --   -0.41956  -0.41546  -0.40545  -0.38877  -0.38181
 Alpha  occ. eigenvalues --   -0.36016  -0.35773  -0.35012  -0.34266  -0.33797
 Alpha  occ. eigenvalues --   -0.33628  -0.33191  -0.32640  -0.31614  -0.31541
 Alpha  occ. eigenvalues --   -0.30917  -0.29752  -0.28524  -0.25365  -0.24616
 Alpha virt. eigenvalues --   -0.00520  -0.00452   0.03017   0.03533   0.04962
 Alpha virt. eigenvalues --    0.06006   0.06575   0.07744   0.08126   0.09193
 Alpha virt. eigenvalues --    0.09429   0.10235   0.10391   0.10826   0.11914

 Mulliken charges:
               1
     1  C   -0.632746
     2  S    1.177539
     3  N   -0.716889
     4  C    0.170029
     5  C   -0.483460
     6  S    1.107924
     7  C   -0.499864
     8  O   -0.562262
     9  O   -0.557884
    10  C   -0.290986
    11  C   -0.382052
    12  C    0.156343
    13  C   -0.194289
    14  C   -0.149643
    15  C   -0.150115
    16  C   -0.149303
    17  C   -0.195245
    18  O   -0.560376
    19  O   -0.584192
    20  H    0.230385
    21  H    0.238369
    22  H    0.222794
    23  H    0.416059
    24  H    0.227267
    25  H    0.251116
    26  H    0.235064
    27  H    0.240551
    28  H    0.176192
    29  H    0.175732
    30  H    0.169869
    31  H    0.170346
    32  H    0.146344
    33  H    0.150468
    34  H    0.149560
    35  H    0.150559
    36  H    0.146795
 Sum of Mulliken charges =   0.00000

 Dipole moment (field-independent basis, Debye):
    X=            -10.2849    Y=              3.1967    Z=             -5.1435  Tot=             11.9354
 Quadrupole moment (field-independent basis, Debye-Ang):
   XX=           -160.8654   YY=           -142.5981   ZZ=           -113.9714
   XY=             -0.5014   XZ=             -5.3028   YZ=             -1.1234

 Normal termination of Gaussian 09 at Fri Aug  7 23:33:13 2020.
