 Gaussian 09, Revision D.01,

 -----------------
 #p b3lyp/6-31G(d)
 -----------------

 -----------------
 SM38.n.10.pdb.xyz
 -----------------
 Symbolic Z-matrix:
 Charge =  0 Multiplicity = 1

 SCF Done:  E(RB3LYP) =  -1619.38283742     A.U. after   16 cycles
 Normal termination of Gaussian 09 at Fri Aug  7 23:19:12 2020.
 Gaussian 09:  AM64L-G09RevD.01 24-Apr-2013

 ----------------------------------------------------------------------
 #p b3lyp/6-31G(d) scrf=(iefpcm,read,solvent=Water) geom=allcheck guess
 =read
 ----------------------------------------------------------------------

 Structure from the checkpoint file:  "SM38.n.10.pdb.xyz.mst.n.w.chk"
 -----------------
 SM38.n.10.pdb.xyz
 -----------------
 Charge =  0 Multiplicity = 1

                         Standard orientation:
 ---------------------------------------------------------------------
 Center     Atomic      Atomic             Coordinates (Angstroms)
 Number     Number       Type             X           Y           Z
 ---------------------------------------------------------------------
      1          6           0        3.490003   -2.445328    0.585949
      2         16           0        2.302483   -1.479345   -0.341390
      3          7           0        1.289919   -0.928867    0.887330
      4          6           0        0.602238    0.368376    0.812184
      5          6           0        0.002856    0.793323   -0.581712
      6         16           0        0.760555    2.438528   -0.398759
      7          6           0        1.588764    1.572606    0.973656
      8          8           0        1.654773    2.834214   -1.503212
      9          8           0       -0.217187    3.432215    0.096800
     10          6           0       -0.443446    0.420283    1.945413
     11          6           0       -1.537787   -0.668162    1.994578
     12          6           0       -2.481935   -0.729154    0.811705
     13          6           0       -2.385378   -1.761725   -0.129583
     14          6           0       -3.251162   -1.819223   -1.224122
     15          6           0       -4.232900   -0.841885   -1.391248
     16          6           0       -4.346268    0.189418   -0.454626
     17          6           0       -3.480219    0.241294    0.638767
     18          8           0        2.962906   -0.296410   -0.919258
     19          8           0        1.583504   -2.386498   -1.253872
     20          1           0        4.007974   -1.786291    1.280808
     21          1           0        4.183235   -2.874654   -0.137428
     22          1           0        2.959527   -3.235143    1.116742
     23          1           0        0.669162   -1.694312    1.156204
     24          1           0       -1.081732    0.821186   -0.652407
     25          1           0        0.436034    0.277097   -1.436472
     26          1           0        1.544661    2.107227    1.921815
     27          1           0        2.611916    1.331374    0.692048
     28          1           0       -0.916875    1.405319    1.891629
     29          1           0        0.107522    0.387524    2.891396
     30          1           0       -2.111888   -0.470633    2.905675
     31          1           0       -1.089065   -1.656661    2.145179
     32          1           0       -1.620699   -2.522498   -0.005597
     33          1           0       -3.158022   -2.627123   -1.942993
     34          1           0       -4.908598   -0.884433   -2.240084
     35          1           0       -5.111404    0.948093   -0.571036
     36          1           0       -3.580357    1.041967    1.366171
 ---------------------------------------------------------------------

 SCF Done:  E(RB3LYP) =  -1619.41078210     A.U. after   11 cycles

 The electronic state is 1-A.
 Alpha  occ. eigenvalues --  -89.12913 -89.09676 -19.15920 -19.15765 -19.15468
 Alpha  occ. eigenvalues --  -19.15269 -14.38246 -10.28025 -10.22664 -10.22636
 Alpha  occ. eigenvalues --  -10.22575 -10.20689 -10.20204 -10.20037 -10.19361
 Alpha  occ. eigenvalues --  -10.19333 -10.19227 -10.19188 -10.19179  -8.15494
 Alpha  occ. eigenvalues --   -8.12764  -6.12003  -6.11922  -6.11755  -6.09213
 Alpha  occ. eigenvalues --   -6.09113  -6.09014  -1.12539  -1.10550  -1.01331
 Alpha  occ. eigenvalues --   -1.00267  -0.95264  -0.86461  -0.85785  -0.79814
 Alpha  occ. eigenvalues --   -0.78028  -0.74726  -0.74321  -0.72167  -0.68442
 Alpha  occ. eigenvalues --   -0.63939  -0.61957  -0.60796  -0.58367  -0.57205
 Alpha  occ. eigenvalues --   -0.54441  -0.52904  -0.51356  -0.50643  -0.49432
 Alpha  occ. eigenvalues --   -0.48901  -0.48022  -0.47049  -0.46314  -0.45380
 Alpha  occ. eigenvalues --   -0.45205  -0.44262  -0.43753  -0.43036  -0.42687
 Alpha  occ. eigenvalues --   -0.42541  -0.41936  -0.40826  -0.38995  -0.37726
 Alpha  occ. eigenvalues --   -0.36922  -0.36166  -0.35212  -0.34015  -0.33707
 Alpha  occ. eigenvalues --   -0.33658  -0.32884  -0.32553  -0.32281  -0.31503
 Alpha  occ. eigenvalues --   -0.30708  -0.30095  -0.27638  -0.25568  -0.24740
 Alpha virt. eigenvalues --   -0.00994  -0.00617   0.03053   0.04305   0.05430
 Alpha virt. eigenvalues --    0.05621   0.05959   0.06496   0.07978   0.09235
 Alpha virt. eigenvalues --    0.09418   0.10140   0.10813   0.11720   0.13524

 Mulliken charges:
               1
     1  C   -0.622998
     2  S    1.189673
     3  N   -0.730719
     4  C    0.187658
     5  C   -0.505209
     6  S    1.113244
     7  C   -0.485001
     8  O   -0.558734
     9  O   -0.577299
    10  C   -0.297836
    11  C   -0.385307
    12  C    0.156202
    13  C   -0.202942
    14  C   -0.143864
    15  C   -0.149675
    16  C   -0.143582
    17  C   -0.197588
    18  O   -0.588128
    19  O   -0.560674
    20  H    0.231231
    21  H    0.237141
    22  H    0.232365
    23  H    0.392965
    24  H    0.236067
    25  H    0.237506
    26  H    0.230383
    27  H    0.242707
    28  H    0.180872
    29  H    0.181045
    30  H    0.180800
    31  H    0.167092
    32  H    0.144531
    33  H    0.152839
    34  H    0.151654
    35  H    0.153081
    36  H    0.150503
 Sum of Mulliken charges =   0.00000

 Dipole moment (field-independent basis, Debye):
    X=             -0.6914    Y=             -7.4828    Z=              8.0984  Tot=             11.0478
 Quadrupole moment (field-independent basis, Debye-Ang):
   XX=           -115.3148   YY=           -141.8898   ZZ=           -123.3888
   XY=            -13.4938   XZ=             17.5740   YZ=              1.7773

 Normal termination of Gaussian 09 at Fri Aug  7 23:23:15 2020.
