 Gaussian 09, Revision D.01,

 -----------------
 #p b3lyp/6-31G(d)
 -----------------

 -----------------
 SM38.n.12.pdb.xyz
 -----------------
 Symbolic Z-matrix:
 Charge =  0 Multiplicity = 1

 SCF Done:  E(RB3LYP) =  -1619.38780733     A.U. after   15 cycles
 Normal termination of Gaussian 09 at Sat Aug  8 00:00:03 2020.
 Gaussian 09:  AM64L-G09RevD.01 24-Apr-2013

 ----------------------------------------------------------------------
 #p b3lyp/6-31G(d) scrf=(iefpcm,read,solvent=n-Octanol) geom=allcheck g
 uess=read
 ----------------------------------------------------------------------

 Structure from the checkpoint file:  "SM38.n.12.pdb.xyz.mst.n.o.chk"
 -----------------
 SM38.n.12.pdb.xyz
 -----------------
 Charge =  0 Multiplicity = 1

                         Standard orientation:
 ---------------------------------------------------------------------
 Center     Atomic      Atomic             Coordinates (Angstroms)
 Number     Number       Type             X           Y           Z
 ---------------------------------------------------------------------
      1          6           0       -1.685473    2.675987   -1.092670
      2         16           0       -0.431180    2.190486    0.092872
      3          7           0        0.038472    0.704240   -0.601954
      4          6           0        1.011599   -0.138566    0.130411
      5          6           0        2.317947    0.652730    0.472476
      6         16           0        3.321912   -0.677041   -0.263988
      7          6           0        1.667866   -1.139855   -0.879871
      8          8           0        4.250710   -0.222653   -1.309590
      9          8           0        3.793935   -1.628551    0.757991
     10          6           0        0.445684   -0.834432    1.386581
     11          6           0       -0.569581   -1.975594    1.160816
     12          6           0       -1.875202   -1.609751    0.480943
     13          6           0       -2.168251   -2.100711   -0.799074
     14          6           0       -3.368427   -1.779074   -1.439563
     15          6           0       -4.300798   -0.962051   -0.799689
     16          6           0       -4.025919   -0.473509    0.480355
     17          6           0       -2.825383   -0.794622    1.114473
     18          8           0        0.720823    3.097694   -0.005785
     19          8           0       -1.064575    2.030672    1.412936
     20          1           0       -1.241619    2.715461   -2.086338
     21          1           0       -2.024007    3.665382   -0.782624
     22          1           0       -2.514007    1.969381   -1.050092
     23          1           0       -0.809093    0.161164   -0.791867
     24          1           0        2.511642    0.825629    1.530369
     25          1           0        2.429950    1.571427   -0.099905
     26          1           0        1.432205   -2.196587   -0.759636
     27          1           0        1.553797   -0.822256   -1.916362
     28          1           0        0.007177   -0.057865    2.018932
     29          1           0        1.293324   -1.257391    1.934903
     30          1           0       -0.785797   -2.397454    2.147593
     31          1           0       -0.093544   -2.778731    0.589304
     32          1           0       -1.451647   -2.750389   -1.293976
     33          1           0       -3.574102   -2.172206   -2.429112
     34          1           0       -5.235637   -0.711983   -1.289615
     35          1           0       -4.749463    0.155676    0.988407
     36          1           0       -2.621703   -0.404668    2.106003
 ---------------------------------------------------------------------

 SCF Done:  E(RB3LYP) =  -1619.41550971     A.U. after   11 cycles

 The electronic state is 1-A.
 Alpha  occ. eigenvalues --  -89.12690 -89.09878 -19.15557 -19.15542 -19.15532
 Alpha  occ. eigenvalues --  -19.15293 -14.38295 -10.28179 -10.23544 -10.23458
 Alpha  occ. eigenvalues --  -10.23112 -10.20860 -10.20407 -10.20342 -10.20047
 Alpha  occ. eigenvalues --  -10.19992 -10.19971 -10.19856 -10.19731  -8.15303
 Alpha  occ. eigenvalues --   -8.12937  -6.11800  -6.11696  -6.11602  -6.09372
 Alpha  occ. eigenvalues --   -6.09289  -6.09209  -1.12234  -1.10795  -1.00981
 Alpha  occ. eigenvalues --   -1.00516  -0.95421  -0.86746  -0.86394  -0.80088
 Alpha  occ. eigenvalues --   -0.78493  -0.75368  -0.74531  -0.72972  -0.68316
 Alpha  occ. eigenvalues --   -0.64616  -0.61736  -0.61298  -0.59069  -0.57390
 Alpha  occ. eigenvalues --   -0.55103  -0.52480  -0.52184  -0.51007  -0.49216
 Alpha  occ. eigenvalues --   -0.48863  -0.48280  -0.47211  -0.46864  -0.45764
 Alpha  occ. eigenvalues --   -0.45689  -0.44803  -0.44557  -0.44074  -0.42823
 Alpha  occ. eigenvalues --   -0.42645  -0.42089  -0.40052  -0.39894  -0.38829
 Alpha  occ. eigenvalues --   -0.36875  -0.36666  -0.35109  -0.34654  -0.34501
 Alpha  occ. eigenvalues --   -0.33514  -0.33120  -0.32531  -0.32206  -0.31237
 Alpha  occ. eigenvalues --   -0.30761  -0.29647  -0.27808  -0.26143  -0.25271
 Alpha virt. eigenvalues --   -0.01616  -0.01264   0.02444   0.03179   0.04664
 Alpha virt. eigenvalues --    0.05444   0.06601   0.07187   0.08081   0.08193
 Alpha virt. eigenvalues --    0.09112   0.09640   0.09856   0.11161   0.12445

 Mulliken charges:
               1
     1  C   -0.652158
     2  S    1.185195
     3  N   -0.715095
     4  C    0.149166
     5  C   -0.504884
     6  S    1.102951
     7  C   -0.496059
     8  O   -0.527372
     9  O   -0.547531
    10  C   -0.294237
    11  C   -0.365673
    12  C    0.126687
    13  C   -0.212759
    14  C   -0.130540
    15  C   -0.142869
    16  C   -0.143799
    17  C   -0.166873
    18  O   -0.548145
    19  O   -0.535443
    20  H    0.231063
    21  H    0.236982
    22  H    0.221086
    23  H    0.363255
    24  H    0.226517
    25  H    0.251060
    26  H    0.221389
    27  H    0.228260
    28  H    0.194198
    29  H    0.173072
    30  H    0.175359
    31  H    0.156763
    32  H    0.141772
    33  H    0.149653
    34  H    0.148217
    35  H    0.149875
    36  H    0.150918
 Sum of Mulliken charges =   0.00000

 Dipole moment (field-independent basis, Debye):
    X=             -8.7576    Y=             -1.2166    Z=             -2.4418  Tot=              9.1727
 Quadrupole moment (field-independent basis, Debye-Ang):
   XX=           -147.1925   YY=           -130.1238   ZZ=           -123.2227
   XY=             -0.4173   XZ=             10.4072   YZ=             -2.2171

 Normal termination of Gaussian 09 at Sat Aug  8 00:04:07 2020.
