 Gaussian 09, Revision D.01,

 -----------------
 #p b3lyp/6-31G(d)
 -----------------

 ----------------
 SM38.n.3.pdb.xyz
 ----------------
 Symbolic Z-matrix:
 Charge =  0 Multiplicity = 1

 SCF Done:  E(RB3LYP) =  -1619.38512699     A.U. after   15 cycles
 Normal termination of Gaussian 09 at Sat Aug  8 00:15:15 2020.
 Gaussian 09:  AM64L-G09RevD.01 24-Apr-2013

 ----------------------------------------------------------------------
 #p b3lyp/6-31G(d) scrf=(iefpcm,read,solvent=n-Octanol) geom=allcheck g
 uess=read
 ----------------------------------------------------------------------

 Structure from the checkpoint file:  "SM38.n.3.pdb.xyz.mst.n.o.chk"
 ----------------
 SM38.n.3.pdb.xyz
 ----------------
 Charge =  0 Multiplicity = 1

                         Standard orientation:
 ---------------------------------------------------------------------
 Center     Atomic      Atomic             Coordinates (Angstroms)
 Number     Number       Type             X           Y           Z
 ---------------------------------------------------------------------
      1          6           0        2.342396    2.766059   -1.268983
      2         16           0        1.196850    2.560134    0.104575
      3          7           0        1.458699    1.048854    0.789101
      4          6           0        1.165511   -0.254556    0.179449
      5          6           0        1.580085   -1.383940    1.181357
      6         16           0        2.381621   -2.307727   -0.173481
      7          6           0        2.116504   -0.699415   -0.996167
      8          8           0        3.795533   -2.619177    0.080868
      9          8           0        1.491066   -3.348105   -0.714768
     10          6           0       -0.309476   -0.397042   -0.234752
     11          6           0       -1.312351   -0.206670    0.914149
     12          6           0       -2.743657   -0.293215    0.433678
     13          6           0       -3.482647   -1.471502    0.584338
     14          6           0       -4.796607   -1.559550    0.120976
     15          6           0       -5.391402   -0.462136   -0.502455
     16          6           0       -4.664945    0.719701   -0.658440
     17          6           0       -3.352421    0.802909   -0.194360
     18          8           0        1.592734    3.504582    1.152368
     19          8           0       -0.156952    2.580299   -0.454304
     20          1           0        3.364880    2.673216   -0.903361
     21          1           0        2.174144    3.768669   -1.664022
     22          1           0        2.126940    2.026816   -2.038918
     23          1           0        2.290683    1.077989    1.376052
     24          1           0        0.761658   -1.915288    1.663742
     25          1           0        2.327612   -1.085523    1.918824
     26          1           0        1.668920   -0.776819   -1.988194
     27          1           0        3.061301   -0.155836   -1.031389
     28          1           0       -0.429160   -1.393284   -0.671775
     29          1           0       -0.523717    0.329437   -1.020827
     30          1           0       -1.129332    0.765740    1.378535
     31          1           0       -1.142726   -0.968241    1.683611
     32          1           0       -3.024324   -2.326243    1.074557
     33          1           0       -5.354119   -2.481461    0.251324
     34          1           0       -6.414016   -0.526314   -0.861280
     35          1           0       -5.122083    1.578272   -1.138562
     36          1           0       -2.788080    1.723732   -0.315588
 ---------------------------------------------------------------------

 SCF Done:  E(RB3LYP) =  -1619.41657143     A.U. after   11 cycles

 The electronic state is 1-A.
 Alpha  occ. eigenvalues --  -89.13111 -89.10441 -19.16013 -19.15875 -19.15814
 Alpha  occ. eigenvalues --  -19.15640 -14.38789 -10.28772 -10.24221 -10.23975
 Alpha  occ. eigenvalues --  -10.23456 -10.20185 -10.19561 -10.19222 -10.18862
 Alpha  occ. eigenvalues --  -10.18807 -10.18715 -10.18696 -10.18480  -8.15598
 Alpha  occ. eigenvalues --   -8.13497  -6.12115  -6.12020  -6.11886  -6.09929
 Alpha  occ. eigenvalues --   -6.09851  -6.09774  -1.12750  -1.11337  -1.01706
 Alpha  occ. eigenvalues --   -1.01072  -0.95684  -0.86696  -0.85434  -0.79583
 Alpha  occ. eigenvalues --   -0.78274  -0.74191  -0.74007  -0.73550  -0.68492
 Alpha  occ. eigenvalues --   -0.65049  -0.61002  -0.60272  -0.58852  -0.57722
 Alpha  occ. eigenvalues --   -0.55082  -0.53494  -0.51991  -0.50661  -0.50172
 Alpha  occ. eigenvalues --   -0.49230  -0.48186  -0.47509  -0.46450  -0.45905
 Alpha  occ. eigenvalues --   -0.45695  -0.44941  -0.44266  -0.43941  -0.42500
 Alpha  occ. eigenvalues --   -0.42322  -0.41640  -0.40903  -0.38975  -0.37502
 Alpha  occ. eigenvalues --   -0.36573  -0.35350  -0.35032  -0.33891  -0.33738
 Alpha  occ. eigenvalues --   -0.33304  -0.32984  -0.32868  -0.31773  -0.31578
 Alpha  occ. eigenvalues --   -0.31303  -0.30786  -0.28630  -0.24914  -0.24154
 Alpha virt. eigenvalues --   -0.00123   0.00067   0.02272   0.03040   0.03841
 Alpha virt. eigenvalues --    0.04916   0.05513   0.06626   0.07851   0.08742
 Alpha virt. eigenvalues --    0.09421   0.09797   0.10545   0.11391   0.11671

 Mulliken charges:
               1
     1  C   -0.633437
     2  S    1.179217
     3  N   -0.716621
     4  C    0.186140
     5  C   -0.505065
     6  S    1.109207
     7  C   -0.507545
     8  O   -0.526456
     9  O   -0.539828
    10  C   -0.287179
    11  C   -0.357479
    12  C    0.156081
    13  C   -0.191529
    14  C   -0.139531
    15  C   -0.141264
    16  C   -0.141262
    17  C   -0.192159
    18  O   -0.540127
    19  O   -0.544815
    20  H    0.219006
    21  H    0.236686
    22  H    0.214372
    23  H    0.381861
    24  H    0.232696
    25  H    0.221533
    26  H    0.230723
    27  H    0.218341
    28  H    0.170965
    29  H    0.187862
    30  H    0.177947
    31  H    0.143947
    32  H    0.131343
    33  H    0.138503
    34  H    0.137331
    35  H    0.138401
    36  H    0.152134
 Sum of Mulliken charges =   0.00000

 Dipole moment (field-independent basis, Debye):
    X=              2.0293    Y=              1.9638    Z=             -1.1700  Tot=              3.0567
 Quadrupole moment (field-independent basis, Debye-Ang):
   XX=           -124.5194   YY=           -152.6226   ZZ=           -120.9355
   XY=             20.0274   XZ=             -1.9948   YZ=            -16.1810

 Normal termination of Gaussian 09 at Sat Aug  8 00:19:10 2020.
