 Gaussian 09, Revision D.01,

 -----------------
 #p b3lyp/6-31G(d)
 -----------------

 ----------------
 SM38.n.5.pdb.xyz
 ----------------
 Symbolic Z-matrix:
 Charge =  0 Multiplicity = 1

 SCF Done:  E(RB3LYP) =  -1619.38027915     A.U. after   15 cycles
 Normal termination of Gaussian 09 at Sat Aug  8 00:16:37 2020.
 Gaussian 09:  AM64L-G09RevD.01 24-Apr-2013

 ----------------------------------------------------------------------
 #p b3lyp/6-31G(d) scrf=(iefpcm,read,solvent=n-Octanol) geom=allcheck g
 uess=read
 ----------------------------------------------------------------------

 Structure from the checkpoint file:  "SM38.n.5.pdb.xyz.mst.n.o.chk"
 ----------------
 SM38.n.5.pdb.xyz
 ----------------
 Charge =  0 Multiplicity = 1

                         Standard orientation:
 ---------------------------------------------------------------------
 Center     Atomic      Atomic             Coordinates (Angstroms)
 Number     Number       Type             X           Y           Z
 ---------------------------------------------------------------------
      1          6           0       -3.885950   -2.423713   -0.648186
      2         16           0       -3.198275   -0.800259   -0.322090
      3          7           0       -1.698926   -1.250889    0.341296
      4          6           0       -0.633070   -0.251860    0.578217
      5          6           0       -1.086065    1.079296    1.278943
      6         16           0       -0.353643    2.059280   -0.076317
      7          6           0       -0.112511    0.378324   -0.753066
      8          8           0       -1.324059    2.871170   -0.823189
      9          8           0        0.921025    2.679516    0.340404
     10          6           0        0.431742   -1.006823    1.395422
     11          6           0        1.756611   -0.262487    1.670210
     12          6           0        2.846985   -0.485985    0.638811
     13          6           0        3.435271    0.594765   -0.029702
     14          6           0        4.465557    0.389523   -0.950913
     15          6           0        4.923084   -0.901159   -1.216376
     16          6           0        4.343246   -1.986337   -0.555545
     17          6           0        3.315907   -1.778935    0.363757
     18          8           0       -2.925161   -0.115188   -1.591990
     19          8           0       -4.050684   -0.125550    0.671201
     20          1           0       -3.233591   -2.949487   -1.343344
     21          1           0       -4.868072   -2.253801   -1.089323
     22          1           0       -3.988425   -2.968502    0.288546
     23          1           0       -1.887224   -1.773817    1.199044
     24          1           0       -0.612217    1.286249    2.237125
     25          1           0       -2.166781    1.211622    1.336132
     26          1           0        0.924422    0.162827   -1.010255
     27          1           0       -0.789291    0.214490   -1.587630
     28          1           0        0.640292   -1.950350    0.883230
     29          1           0       -0.034996   -1.263250    2.353742
     30          1           0        2.123300   -0.609973    2.642698
     31          1           0        1.575912    0.811514    1.777929
     32          1           0        3.063648    1.594716    0.164578
     33          1           0        4.907053    1.238304   -1.461651
     34          1           0        5.723933   -1.061931   -1.931303
     35          1           0        4.694742   -2.993753   -0.752684
     36          1           0        2.876663   -2.630217    0.877762
 ---------------------------------------------------------------------

 SCF Done:  E(RB3LYP) =  -1619.41123532     A.U. after   11 cycles

 The electronic state is 1-A.
 Alpha  occ. eigenvalues --  -89.12932 -89.09462 -19.15892 -19.15792 -19.15090
 Alpha  occ. eigenvalues --  -19.15012 -14.38495 -10.28149 -10.23493 -10.22860
 Alpha  occ. eigenvalues --  -10.22411 -10.21014 -10.19896 -10.19837 -10.19140
 Alpha  occ. eigenvalues --  -10.19004 -10.18997 -10.18933 -10.18525  -8.15544
 Alpha  occ. eigenvalues --   -8.12541  -6.12043  -6.11949  -6.11831  -6.08980
 Alpha  occ. eigenvalues --   -6.08891  -6.08805  -1.12593  -1.10417  -1.01412
 Alpha  occ. eigenvalues --   -1.00132  -0.95470  -0.86389  -0.85448  -0.79682
 Alpha  occ. eigenvalues --   -0.78628  -0.74462  -0.74206  -0.72433  -0.68626
 Alpha  occ. eigenvalues --   -0.63070  -0.62332  -0.60475  -0.58265  -0.57101
 Alpha  occ. eigenvalues --   -0.54705  -0.52573  -0.51443  -0.50796  -0.49957
 Alpha  occ. eigenvalues --   -0.49035  -0.48373  -0.46863  -0.46220  -0.45430
 Alpha  occ. eigenvalues --   -0.45067  -0.44746  -0.44331  -0.44072  -0.42670
 Alpha  occ. eigenvalues --   -0.41632  -0.41085  -0.40773  -0.39867  -0.37259
 Alpha  occ. eigenvalues --   -0.36651  -0.35850  -0.35254  -0.34131  -0.33849
 Alpha  occ. eigenvalues --   -0.33552  -0.32795  -0.32293  -0.32024  -0.31519
 Alpha  occ. eigenvalues --   -0.30117  -0.29574  -0.27795  -0.25148  -0.24438
 Alpha virt. eigenvalues --   -0.00650  -0.00234   0.02818   0.04000   0.04533
 Alpha virt. eigenvalues --    0.05290   0.05754   0.06219   0.07704   0.08719
 Alpha virt. eigenvalues --    0.09398   0.09893   0.10493   0.11911   0.12377

 Mulliken charges:
               1
     1  C   -0.636070
     2  S    1.173817
     3  N   -0.711297
     4  C    0.186861
     5  C   -0.522194
     6  S    1.120711
     7  C   -0.511544
     8  O   -0.528727
     9  O   -0.555560
    10  C   -0.306357
    11  C   -0.383451
    12  C    0.147379
    13  C   -0.209345
    14  C   -0.138451
    15  C   -0.140432
    16  C   -0.138956
    17  C   -0.186320
    18  O   -0.546093
    19  O   -0.538190
    20  H    0.230843
    21  H    0.235118
    22  H    0.222226
    23  H    0.371525
    24  H    0.222423
    25  H    0.245216
    26  H    0.228131
    27  H    0.255551
    28  H    0.178567
    29  H    0.161072
    30  H    0.170958
    31  H    0.178603
    32  H    0.168384
    33  H    0.140974
    34  H    0.139549
    35  H    0.139870
    36  H    0.135208
 Sum of Mulliken charges =   0.00000

 Dipole moment (field-independent basis, Debye):
    X=              0.3775    Y=             -9.8492    Z=              3.2637  Tot=             10.3828
 Quadrupole moment (field-independent basis, Debye-Ang):
   XX=           -128.5459   YY=           -128.7828   ZZ=           -121.8608
   XY=             16.1999   XZ=             -6.8548   YZ=              2.7193

 Normal termination of Gaussian 09 at Sat Aug  8 00:20:43 2020.
