 Gaussian 09, Revision D.01,

 -----------------
 #p b3lyp/6-31G(d)
 -----------------

 -----------------
 SM38.n.11.pdb.xyz
 -----------------
 Symbolic Z-matrix:
 Charge =  0 Multiplicity = 1

 SCF Done:  E(RB3LYP) =  -1619.38065436     A.U. after   16 cycles
 Normal termination of Gaussian 09 at Fri Aug  7 23:28:37 2020.
 Gaussian 09:  AM64L-G09RevD.01 24-Apr-2013

 ----------------------------------------------------------------------
 #p b3lyp/6-31G(d) scrf=(iefpcm,read,solvent=Water) geom=allcheck guess
 =read
 ----------------------------------------------------------------------

 Structure from the checkpoint file:  "SM38.n.11.pdb.xyz.mst.n.w.chk"
 -----------------
 SM38.n.11.pdb.xyz
 -----------------
 Charge =  0 Multiplicity = 1

                         Standard orientation:
 ---------------------------------------------------------------------
 Center     Atomic      Atomic             Coordinates (Angstroms)
 Number     Number       Type             X           Y           Z
 ---------------------------------------------------------------------
      1          6           0       -3.418909   -3.065990   -0.515160
      2         16           0       -3.078367   -1.405887    0.061146
      3          7           0       -1.401166   -1.355946   -0.147413
      4          6           0       -0.640855   -0.092183   -0.045625
      5          6           0       -1.018104    0.848871    1.155737
      6         16           0       -1.310330    2.229348   -0.001754
      7          6           0       -0.984520    0.897360   -1.206913
      8          8           0       -2.704924    2.712067   -0.010197
      9          8           0       -0.228520    3.235419    0.035018
     10          6           0        0.839672   -0.523395   -0.030577
     11          6           0        1.883044    0.607431    0.007008
     12          6           0        3.291355    0.053875    0.007720
     13          6           0        3.966356   -0.186514   -1.195840
     14          6           0        5.256919   -0.718056   -1.200505
     15          6           0        5.894705   -1.019914    0.004096
     16          6           0        5.233366   -0.783975    1.211476
     17          6           0        3.942450   -0.252055    1.210508
     18          8           0       -3.667810   -0.420693   -0.862133
     19          8           0       -3.467562   -1.315113    1.482530
     20          1           0       -3.110483   -3.146742   -1.555919
     21          1           0       -4.495133   -3.211300   -0.413693
     22          1           0       -2.883040   -3.776326    0.112470
     23          1           0       -0.995652   -2.075145    0.459357
     24          1           0       -0.214984    1.059944    1.859630
     25          1           0       -1.929175    0.568907    1.683088
     26          1           0       -0.166376    1.134561   -1.886831
     27          1           0       -1.891282    0.640978   -1.749737
     28          1           0        1.007410   -1.142591   -0.917544
     29          1           0        0.992832   -1.164602    0.843559
     30          1           0        1.734112    1.220898    0.900939
     31          1           0        1.756237    1.265601   -0.856275
     32          1           0        3.477776    0.051790   -2.137085
     33          1           0        5.765421   -0.892154   -2.144262
     34          1           0        6.899722   -1.429538    0.003406
     35          1           0        5.722123   -1.009308    2.153579
     36          1           0        3.435450   -0.064906    2.153626
 ---------------------------------------------------------------------

 SCF Done:  E(RB3LYP) =  -1619.41330615     A.U. after   11 cycles

 The electronic state is 1-A.
 Alpha  occ. eigenvalues --  -89.12747 -89.09744 -19.15734 -19.15631 -19.15433
 Alpha  occ. eigenvalues --  -19.15386 -14.37976 -10.27945 -10.22769 -10.22674
 Alpha  occ. eigenvalues --  -10.22614 -10.20561 -10.20017 -10.19718 -10.19140
 Alpha  occ. eigenvalues --  -10.19130 -10.19004 -10.18996 -10.18986  -8.15349
 Alpha  occ. eigenvalues --   -8.12823  -6.11845  -6.11767  -6.11626  -6.09271
 Alpha  occ. eigenvalues --   -6.09173  -6.09074  -1.12291  -1.10603  -1.01038
 Alpha  occ. eigenvalues --   -1.00315  -0.95075  -0.86320  -0.85592  -0.79689
 Alpha  occ. eigenvalues --   -0.78117  -0.74494  -0.74071  -0.72353  -0.68464
 Alpha  occ. eigenvalues --   -0.62658  -0.62075  -0.60611  -0.58270  -0.56973
 Alpha  occ. eigenvalues --   -0.54348  -0.52532  -0.51175  -0.50696  -0.49765
 Alpha  occ. eigenvalues --   -0.49004  -0.48139  -0.47544  -0.46160  -0.45428
 Alpha  occ. eigenvalues --   -0.44692  -0.44149  -0.43825  -0.43463  -0.42648
 Alpha  occ. eigenvalues --   -0.41927  -0.41212  -0.40310  -0.39370  -0.37661
 Alpha  occ. eigenvalues --   -0.36326  -0.35550  -0.35229  -0.34087  -0.33918
 Alpha  occ. eigenvalues --   -0.33583  -0.33021  -0.32443  -0.32240  -0.31416
 Alpha  occ. eigenvalues --   -0.30606  -0.29840  -0.27647  -0.25329  -0.24641
 Alpha virt. eigenvalues --   -0.00477  -0.00409   0.02697   0.04231   0.04815
 Alpha virt. eigenvalues --    0.05234   0.05897   0.06947   0.08236   0.09035
 Alpha virt. eigenvalues --    0.09677   0.10034   0.11029   0.11164   0.12411

 Mulliken charges:
               1
     1  C   -0.632492
     2  S    1.176471
     3  N   -0.720254
     4  C    0.190472
     5  C   -0.514071
     6  S    1.123986
     7  C   -0.497998
     8  O   -0.560994
     9  O   -0.576300
    10  C   -0.298525
    11  C   -0.382733
    12  C    0.159956
    13  C   -0.195506
    14  C   -0.149549
    15  C   -0.150372
    16  C   -0.149544
    17  C   -0.195649
    18  O   -0.571606
    19  O   -0.564257
    20  H    0.234302
    21  H    0.239641
    22  H    0.234137
    23  H    0.406804
    24  H    0.234641
    25  H    0.242293
    26  H    0.230700
    27  H    0.251659
    28  H    0.179576
    29  H    0.175745
    30  H    0.169780
    31  H    0.169269
    32  H    0.145146
    33  H    0.150181
    34  H    0.149243
    35  H    0.150186
    36  H    0.145661
 Sum of Mulliken charges =   0.00000

 Dipole moment (field-independent basis, Debye):
    X=              5.2220    Y=            -10.6697    Z=             -0.8136  Tot=             11.9069
 Quadrupole moment (field-independent basis, Debye-Ang):
   XX=           -142.7595   YY=           -133.2389   ZZ=           -118.5835
   XY=             18.3441   XZ=              5.1215   YZ=              2.1766

 Normal termination of Gaussian 09 at Fri Aug  7 23:32:17 2020.
