 Gaussian 09, Revision D.01,

 -----------------
 #p b3lyp/6-31G(d)
 -----------------

 -----------------
 SM38.n.12.pdb.xyz
 -----------------
 Symbolic Z-matrix:
 Charge =  0 Multiplicity = 1

 SCF Done:  E(RB3LYP) =  -1619.38600383     A.U. after   15 cycles
 Normal termination of Gaussian 09 at Fri Aug  7 23:29:18 2020.
 Gaussian 09:  AM64L-G09RevD.01 24-Apr-2013

 ----------------------------------------------------------------------
 #p b3lyp/6-31G(d) scrf=(iefpcm,read,solvent=Water) geom=allcheck guess
 =read
 ----------------------------------------------------------------------

 Structure from the checkpoint file:  "SM38.n.12.pdb.xyz.mst.n.w.chk"
 -----------------
 SM38.n.12.pdb.xyz
 -----------------
 Charge =  0 Multiplicity = 1

                         Standard orientation:
 ---------------------------------------------------------------------
 Center     Atomic      Atomic             Coordinates (Angstroms)
 Number     Number       Type             X           Y           Z
 ---------------------------------------------------------------------
      1          6           0        1.522885    2.774018    1.104912
      2         16           0        0.381855    2.178317   -0.140360
      3          7           0       -0.135992    0.749901    0.612673
      4          6           0       -1.043979   -0.173606   -0.104304
      5          6           0       -2.338903    0.558728   -0.597749
      6         16           0       -3.367386   -0.693615    0.229598
      7          6           0       -1.746256   -1.091942    0.955605
      8          8           0       -4.347320   -0.142566    1.184352
      9          8           0       -3.818387   -1.744153   -0.706787
     10          6           0       -0.399980   -0.977238   -1.256173
     11          6           0        0.619242   -2.074878   -0.884112
     12          6           0        1.958836   -1.622476   -0.339213
     13          6           0        2.295243   -1.834589    1.005102
     14          6           0        3.532991   -1.429172    1.511459
     15          6           0        4.461232   -0.810669    0.674138
     16          6           0        4.144505   -0.605225   -0.671658
     17          6           0        2.906970   -1.008261   -1.171747
     18          8           0       -0.784158    3.076022   -0.221867
     19          8           0        1.123905    1.947037   -1.395712
     20          1           0        0.988750    2.891625    2.047025
     21          1           0        1.885106    3.736870    0.744124
     22          1           0        2.349207    2.071022    1.200018
     23          1           0        0.688973    0.244437    0.953468
     24          1           0       -2.482563    0.609193   -1.675124
     25          1           0       -2.492791    1.531056   -0.135339
     26          1           0       -1.504775   -2.152942    0.935553
     27          1           0       -1.682536   -0.690920    1.968021
     28          1           0        0.050941   -0.262288   -1.949849
     29          1           0       -1.218359   -1.465656   -1.794933
     30          1           0        0.790224   -2.653614   -1.799125
     31          1           0        0.164276   -2.769628   -0.169734
     32          1           0        1.579878   -2.327428    1.657785
     33          1           0        3.770838   -1.604132    2.556368
     34          1           0        5.425332   -0.497860    1.061700
     35          1           0        4.865425   -0.133775   -1.333156
     36          1           0        2.673481   -0.849372   -2.220750
 ---------------------------------------------------------------------

 SCF Done:  E(RB3LYP) =  -1619.41075888     A.U. after   11 cycles

 The electronic state is 1-A.
 Alpha  occ. eigenvalues --  -89.12748 -89.10150 -19.15902 -19.15674 -19.15610
 Alpha  occ. eigenvalues --  -19.15544 -14.38235 -10.28046 -10.23313 -10.23039
 Alpha  occ. eigenvalues --  -10.22837 -10.20239 -10.20096 -10.19716 -10.19420
 Alpha  occ. eigenvalues --  -10.19348 -10.19310 -10.19217 -10.19141  -8.15348
 Alpha  occ. eigenvalues --   -8.13216  -6.11847  -6.11752  -6.11636  -6.09664
 Alpha  occ. eigenvalues --   -6.09567  -6.09471  -1.12154  -1.10997  -1.00819
 Alpha  occ. eigenvalues --   -1.00707  -0.95316  -0.86545  -0.85993  -0.79591
 Alpha  occ. eigenvalues --   -0.78096  -0.74743  -0.74064  -0.72793  -0.68123
 Alpha  occ. eigenvalues --   -0.64365  -0.61503  -0.60788  -0.58558  -0.57114
 Alpha  occ. eigenvalues --   -0.54881  -0.52458  -0.51600  -0.50877  -0.49156
 Alpha  occ. eigenvalues --   -0.48852  -0.48237  -0.46785  -0.46521  -0.45617
 Alpha  occ. eigenvalues --   -0.45184  -0.44546  -0.44245  -0.43711  -0.42347
 Alpha  occ. eigenvalues --   -0.42168  -0.41678  -0.39771  -0.39232  -0.38484
 Alpha  occ. eigenvalues --   -0.36535  -0.36269  -0.34872  -0.34590  -0.33926
 Alpha  occ. eigenvalues --   -0.33487  -0.33154  -0.32860  -0.32253  -0.31337
 Alpha  occ. eigenvalues --   -0.31035  -0.29933  -0.27697  -0.25551  -0.24716
 Alpha virt. eigenvalues --   -0.00994  -0.00711   0.02535   0.03163   0.04561
 Alpha virt. eigenvalues --    0.05488   0.06950   0.07580   0.08546   0.08727
 Alpha virt. eigenvalues --    0.09224   0.09915   0.10435   0.11422   0.13027

 Mulliken charges:
               1
     1  C   -0.642123
     2  S    1.174770
     3  N   -0.718300
     4  C    0.147487
     5  C   -0.501247
     6  S    1.109258
     7  C   -0.494133
     8  O   -0.552938
     9  O   -0.570044
    10  C   -0.282886
    11  C   -0.371854
    12  C    0.144192
    13  C   -0.224270
    14  C   -0.139655
    15  C   -0.149897
    16  C   -0.146125
    17  C   -0.173020
    18  O   -0.571527
    19  O   -0.552013
    20  H    0.237485
    21  H    0.244526
    22  H    0.228057
    23  H    0.381829
    24  H    0.238241
    25  H    0.251543
    26  H    0.237793
    27  H    0.238912
    28  H    0.187815
    29  H    0.171886
    30  H    0.176848
    31  H    0.163986
    32  H    0.150302
    33  H    0.153345
    34  H    0.151881
    35  H    0.152288
    36  H    0.147589
 Sum of Mulliken charges =   0.00000

 Dipole moment (field-independent basis, Debye):
    X=              9.0795    Y=             -1.2085    Z=              3.5601  Tot=              9.8271
 Quadrupole moment (field-independent basis, Debye-Ang):
   XX=           -152.7239   YY=           -131.2797   ZZ=           -120.7493
   XY=              0.8873   XZ=             10.2438   YZ=              4.3544

 Normal termination of Gaussian 09 at Fri Aug  7 23:33:49 2020.
