 Gaussian 09, Revision D.01,

 -----------------
 #p b3lyp/6-31G(d)
 -----------------

 ----------------
 SM38.n.9.pdb.xyz
 ----------------
 Symbolic Z-matrix:
 Charge =  0 Multiplicity = 1

 SCF Done:  E(RB3LYP) =  -1619.38114133     A.U. after   16 cycles
 Normal termination of Gaussian 09 at Fri Aug  7 23:40:10 2020.
 Gaussian 09:  AM64L-G09RevD.01 24-Apr-2013

 ----------------------------------------------------------------------
 #p b3lyp/6-31G(d) scrf=(iefpcm,read,solvent=Water) geom=allcheck guess
 =read
 ----------------------------------------------------------------------

 Structure from the checkpoint file:  "SM38.n.9.pdb.xyz.mst.n.w.chk"
 ----------------
 SM38.n.9.pdb.xyz
 ----------------
 Charge =  0 Multiplicity = 1

                         Standard orientation:
 ---------------------------------------------------------------------
 Center     Atomic      Atomic             Coordinates (Angstroms)
 Number     Number       Type             X           Y           Z
 ---------------------------------------------------------------------
      1          6           0        2.909532   -3.008149    0.225887
      2         16           0        2.528308   -1.339798   -0.302722
      3          7           0        1.262212   -0.981777    0.767306
      4          6           0        0.575436    0.323455    0.760886
      5          6           0       -0.031761    0.790977   -0.613793
      6         16           0        0.678672    2.446113   -0.354337
      7          6           0        1.541433    1.535742    0.966304
      8          8           0        1.561621    2.914370   -1.441472
      9          8           0       -0.317589    3.392981    0.191046
     10          6           0       -0.461229    0.308799    1.903327
     11          6           0       -1.522334   -0.809618    1.912937
     12          6           0       -2.516764   -0.807116    0.769465
     13          6           0       -2.509826   -1.829145   -0.187569
     14          6           0       -3.425934   -1.834980   -1.242036
     15          6           0       -4.371343   -0.814124   -1.352473
     16          6           0       -4.395714    0.207515   -0.398740
     17          6           0       -3.478931    0.207311    0.653477
     18          8           0        3.657664   -0.448475    0.018678
     19          8           0        2.086167   -1.378684   -1.711544
     20          1           0        3.175523   -2.991483    1.281915
     21          1           0        3.757025   -3.327958   -0.381682
     22          1           0        2.050569   -3.651361    0.040946
     23          1           0        0.579919   -1.739506    0.677033
     24          1           0       -1.115846    0.785727   -0.694883
     25          1           0        0.434268    0.312934   -1.475548
     26          1           0        1.495210    2.020868    1.940835
     27          1           0        2.570844    1.334188    0.673677
     28          1           0       -0.957415    1.284646    1.896999
     29          1           0        0.101956    0.247948    2.840203
     30          1           0       -2.065321   -0.700614    2.858704
     31          1           0       -1.036477   -1.789626    1.966444
     32          1           0       -1.781740   -2.630822   -0.104515
     33          1           0       -3.402259   -2.636696   -1.972568
     34          1           0       -5.085129   -0.814361   -2.169232
     35          1           0       -5.132830    1.000265   -0.470314
     36          1           0       -3.513760    1.001701    1.394104
 ---------------------------------------------------------------------

 SCF Done:  E(RB3LYP) =  -1619.40745172     A.U. after   11 cycles

 The electronic state is 1-A.
 Alpha  occ. eigenvalues --  -89.13308 -89.09977 -19.16201 -19.16155 -19.15733
 Alpha  occ. eigenvalues --  -19.15534 -14.39109 -10.28248 -10.23108 -10.22893
 Alpha  occ. eigenvalues --  -10.22754 -10.20679 -10.20335 -10.20102 -10.19442
 Alpha  occ. eigenvalues --  -10.19434 -10.19380 -10.19262 -10.19239  -8.15918
 Alpha  occ. eigenvalues --   -8.13055  -6.12423  -6.12325  -6.12195  -6.09504
 Alpha  occ. eigenvalues --   -6.09406  -6.09308  -1.12746  -1.10797  -1.01461
 Alpha  occ. eigenvalues --   -1.00512  -0.95954  -0.86823  -0.85995  -0.79979
 Alpha  occ. eigenvalues --   -0.78428  -0.74829  -0.74418  -0.72422  -0.68585
 Alpha  occ. eigenvalues --   -0.64323  -0.62134  -0.60888  -0.58514  -0.57478
 Alpha  occ. eigenvalues --   -0.55082  -0.52994  -0.51513  -0.50473  -0.49657
 Alpha  occ. eigenvalues --   -0.49025  -0.48623  -0.47197  -0.46581  -0.45735
 Alpha  occ. eigenvalues --   -0.45427  -0.44559  -0.44151  -0.43718  -0.42800
 Alpha  occ. eigenvalues --   -0.42628  -0.42013  -0.40896  -0.39060  -0.37774
 Alpha  occ. eigenvalues --   -0.36916  -0.36555  -0.35409  -0.34585  -0.34141
 Alpha  occ. eigenvalues --   -0.33750  -0.33200  -0.32772  -0.32421  -0.31971
 Alpha  occ. eigenvalues --   -0.30852  -0.29961  -0.28149  -0.25662  -0.24824
 Alpha virt. eigenvalues --   -0.01171  -0.00675   0.02466   0.03721   0.04533
 Alpha virt. eigenvalues --    0.05298   0.05670   0.05939   0.07398   0.08192
 Alpha virt. eigenvalues --    0.09012   0.09869   0.10968   0.11785   0.13118

 Mulliken charges:
               1
     1  C   -0.637962
     2  S    1.161518
     3  N   -0.704269
     4  C    0.159284
     5  C   -0.510681
     6  S    1.105462
     7  C   -0.502781
     8  O   -0.557912
     9  O   -0.571463
    10  C   -0.281184
    11  C   -0.385822
    12  C    0.159916
    13  C   -0.208844
    14  C   -0.141705
    15  C   -0.149474
    16  C   -0.142326
    17  C   -0.198735
    18  O   -0.563320
    19  O   -0.551470
    20  H    0.240684
    21  H    0.247438
    22  H    0.233109
    23  H    0.367889
    24  H    0.238465
    25  H    0.242816
    26  H    0.237123
    27  H    0.254480
    28  H    0.179814
    29  H    0.180409
    30  H    0.183251
    31  H    0.162797
    32  H    0.141900
    33  H    0.153671
    34  H    0.152500
    35  H    0.153868
    36  H    0.151556
 Sum of Mulliken charges =   0.00000

 Dipole moment (field-independent basis, Debye):
    X=             -3.2102    Y=             -9.6723    Z=              5.8727  Tot=             11.7622
 Quadrupole moment (field-independent basis, Debye-Ang):
   XX=           -129.4984   YY=           -130.5199   ZZ=           -125.7997
   XY=            -13.5498   XZ=             12.9913   YZ=              5.3503

 Normal termination of Gaussian 09 at Fri Aug  7 23:44:39 2020.
