 Gaussian 09, Revision D.01,

 -----------------
 #p b3lyp/6-31G(d)
 -----------------

 -----------------
 SM38.n.14.pdb.xyz
 -----------------
 Symbolic Z-matrix:
 Charge =  0 Multiplicity = 1

 SCF Done:  E(RB3LYP) =  -1619.38210025     A.U. after   16 cycles
 Normal termination of Gaussian 09 at Fri Aug  7 23:29:34 2020.
 Gaussian 09:  AM64L-G09RevD.01 24-Apr-2013

 ----------------------------------------------------------------------
 #p b3lyp/6-31G(d) scrf=(iefpcm,read,solvent=Water) geom=allcheck guess
 =read
 ----------------------------------------------------------------------

 Structure from the checkpoint file:  "SM38.n.14.pdb.xyz.mst.n.w.chk"
 -----------------
 SM38.n.14.pdb.xyz
 -----------------
 Charge =  0 Multiplicity = 1

                         Standard orientation:
 ---------------------------------------------------------------------
 Center     Atomic      Atomic             Coordinates (Angstroms)
 Number     Number       Type             X           Y           Z
 ---------------------------------------------------------------------
      1          6           0        4.120024   -0.335587   -0.031853
      2         16           0        2.705874   -1.440980   -0.135906
      3          7           0        1.369325   -0.563566   -0.649400
      4          6           0        0.644239    0.440410    0.147810
      5          6           0       -0.433740    1.114192   -0.774346
      6         16           0        0.072940    2.759219   -0.183448
      7          6           0        1.439150    1.759803    0.482561
      8          8           0        0.467251    3.693954   -1.253370
      9          8           0       -0.819511    3.254188    0.885955
     10          6           0        0.029727   -0.151766    1.430818
     11          6           0       -0.814135   -1.430563    1.269000
     12          6           0       -2.134212   -1.285731    0.539650
     13          6           0       -2.331289   -1.898100   -0.704835
     14          6           0       -3.548112   -1.781557   -1.380275
     15          6           0       -4.593394   -1.048602   -0.816661
     16          6           0       -4.414048   -0.438793    0.428090
     17          6           0       -3.197591   -0.560503    1.100852
     18          8           0        2.965772   -2.391061   -1.226695
     19          8           0        2.428406   -1.945941    1.215845
     20          1           0        4.295241    0.106785   -1.012185
     21          1           0        4.972524   -0.946877    0.266625
     22          1           0        3.926234    0.428934    0.717120
     23          1           0        1.512043   -0.292021   -1.624331
     24          1           0       -1.469493    0.865667   -0.559331
     25          1           0       -0.229584    1.027082   -1.842796
     26          1           0        1.655366    1.951213    1.533971
     27          1           0        2.327565    1.908395   -0.131890
     28          1           0       -0.566796    0.638415    1.897799
     29          1           0        0.848035   -0.377360    2.117155
     30          1           0       -1.008130   -1.802353    2.282267
     31          1           0       -0.208931   -2.189307    0.769687
     32          1           0       -1.519593   -2.468431   -1.145517
     33          1           0       -3.678246   -2.263952   -2.343983
     34          1           0       -5.541214   -0.955758   -1.338255
     35          1           0       -5.223773    0.124765    0.878582
     36          1           0       -3.072623   -0.090395    2.071793
 ---------------------------------------------------------------------

 SCF Done:  E(RB3LYP) =  -1619.41278267     A.U. after   11 cycles

 The electronic state is 1-A.
 Alpha  occ. eigenvalues --  -89.12790 -89.10190 -19.15935 -19.15693 -19.15660
 Alpha  occ. eigenvalues --  -19.15509 -14.38086 -10.28086 -10.23287 -10.23284
 Alpha  occ. eigenvalues --  -10.22642 -10.19810 -10.19779 -10.19148 -10.19086
 Alpha  occ. eigenvalues --  -10.18967 -10.18913 -10.18881 -10.18826  -8.15297
 Alpha  occ. eigenvalues --   -8.13262  -6.11800  -6.11732  -6.11579  -6.09710
 Alpha  occ. eigenvalues --   -6.09613  -6.09518  -1.12365  -1.11040  -1.01305
 Alpha  occ. eigenvalues --   -1.00747  -0.95010  -0.86259  -0.85534  -0.79260
 Alpha  occ. eigenvalues --   -0.77698  -0.74452  -0.74037  -0.72686  -0.68289
 Alpha  occ. eigenvalues --   -0.64656  -0.60760  -0.60395  -0.58414  -0.57236
 Alpha  occ. eigenvalues --   -0.54464  -0.52924  -0.51478  -0.50722  -0.49505
 Alpha  occ. eigenvalues --   -0.48802  -0.47850  -0.46964  -0.46028  -0.45890
 Alpha  occ. eigenvalues --   -0.45451  -0.44633  -0.43759  -0.43390  -0.42381
 Alpha  occ. eigenvalues --   -0.42139  -0.41554  -0.40323  -0.38748  -0.37597
 Alpha  occ. eigenvalues --   -0.36118  -0.35662  -0.34879  -0.33875  -0.33669
 Alpha  occ. eigenvalues --   -0.33121  -0.32884  -0.32753  -0.31574  -0.31275
 Alpha  occ. eigenvalues --   -0.31228  -0.30454  -0.28256  -0.25330  -0.24383
 Alpha virt. eigenvalues --   -0.00744  -0.00293   0.02998   0.03525   0.04270
 Alpha virt. eigenvalues --    0.05423   0.06671   0.07295   0.08468   0.09367
 Alpha virt. eigenvalues --    0.09792   0.10586   0.11358   0.12026   0.12590

 Mulliken charges:
               1
     1  C   -0.636110
     2  S    1.177370
     3  N   -0.716258
     4  C    0.179460
     5  C   -0.505500
     6  S    1.112596
     7  C   -0.507620
     8  O   -0.553270
     9  O   -0.568997
    10  C   -0.285023
    11  C   -0.350467
    12  C    0.140511
    13  C   -0.198673
    14  C   -0.144715
    15  C   -0.152012
    16  C   -0.145594
    17  C   -0.197565
    18  O   -0.566696
    19  O   -0.572289
    20  H    0.230036
    21  H    0.242169
    22  H    0.224308
    23  H    0.413286
    24  H    0.245281
    25  H    0.233344
    26  H    0.241135
    27  H    0.232022
    28  H    0.168961
    29  H    0.181230
    30  H    0.164140
    31  H    0.173334
    32  H    0.145579
    33  H    0.149532
    34  H    0.149037
    35  H    0.150264
    36  H    0.147195
 Sum of Mulliken charges =   0.00000

 Dipole moment (field-independent basis, Debye):
    X=              2.8074    Y=              0.1675    Z=             -0.7863  Tot=              2.9203
 Quadrupole moment (field-independent basis, Debye-Ang):
   XX=           -106.3436   YY=           -168.3237   ZZ=           -123.7938
   XY=             17.3856   XZ=              3.8855   YZ=              3.5529

 Normal termination of Gaussian 09 at Fri Aug  7 23:33:57 2020.
