 Gaussian 09, Revision D.01,

 -----------------
 #p b3lyp/6-31G(d)
 -----------------

 ----------------
 SM38.n.4.pdb.xyz
 ----------------
 Symbolic Z-matrix:
 Charge =  0 Multiplicity = 1

 SCF Done:  E(RB3LYP) =  -1619.38472645     A.U. after   15 cycles
 Normal termination of Gaussian 09 at Sat Aug  8 00:16:27 2020.
 Gaussian 09:  AM64L-G09RevD.01 24-Apr-2013

 ----------------------------------------------------------------------
 #p b3lyp/6-31G(d) scrf=(iefpcm,read,solvent=n-Octanol) geom=allcheck g
 uess=read
 ----------------------------------------------------------------------

 Structure from the checkpoint file:  "SM38.n.4.pdb.xyz.mst.n.o.chk"
 ----------------
 SM38.n.4.pdb.xyz
 ----------------
 Charge =  0 Multiplicity = 1

                         Standard orientation:
 ---------------------------------------------------------------------
 Center     Atomic      Atomic             Coordinates (Angstroms)
 Number     Number       Type             X           Y           Z
 ---------------------------------------------------------------------
      1          6           0       -1.253369    2.176525    1.448205
      2         16           0       -0.363354    2.280121   -0.110844
      3          7           0        0.075819    0.734333   -0.596343
      4          6           0        1.015429   -0.171996    0.081673
      5          6           0        2.303202    0.560676    0.587616
      6         16           0        3.335568   -0.730540   -0.177493
      7          6           0        1.736675   -1.058270   -0.993288
      8          8           0        4.383841   -0.218922   -1.072357
      9          8           0        3.663000   -1.795947    0.786566
     10          6           0        0.409482   -1.027164    1.216323
     11          6           0       -0.615123   -2.114371    0.826694
     12          6           0       -1.955018   -1.640854    0.304121
     13          6           0       -2.283072   -1.774920   -1.051464
     14          6           0       -3.517565   -1.339118   -1.541296
     15          6           0       -4.451063   -0.772651   -0.674449
     16          6           0       -4.145619   -0.650776    0.683619
     17          6           0       -2.910243   -1.081742    1.167383
     18          8           0       -1.310707    2.722216   -1.135845
     19          8           0        0.868257    3.036289    0.145310
     20          1           0       -2.138923    1.557377    1.309906
     21          1           0       -1.533612    3.196088    1.717451
     22          1           0       -0.597451    1.755994    2.209717
     23          1           0       -0.728679    0.263714   -1.011477
     24          1           0        2.419652    0.650174    1.666315
     25          1           0        2.473192    1.515371    0.092979
     26          1           0        1.468262   -2.113450   -1.042374
     27          1           0        1.725189   -0.597675   -1.981536
     28          1           0       -0.024020   -0.351888    1.961703
     29          1           0        1.248884   -1.529991    1.706141
     30          1           0       -0.777563   -2.719811    1.724634
     31          1           0       -0.165847   -2.788787    0.090227
     32          1           0       -1.569331   -2.238600   -1.727675
     33          1           0       -3.749087   -1.451560   -2.595212
     34          1           0       -5.411122   -0.436124   -1.048894
     35          1           0       -4.873276   -0.227032    1.367670
     36          1           0       -2.689850   -0.998562    2.227998
 ---------------------------------------------------------------------

 SCF Done:  E(RB3LYP) =  -1619.41430006     A.U. after   11 cycles

 The electronic state is 1-A.
 Alpha  occ. eigenvalues --  -89.12872 -89.10075 -19.15720 -19.15609 -19.15467
 Alpha  occ. eigenvalues --  -19.15401 -14.38346 -10.28643 -10.23749 -10.23371
 Alpha  occ. eigenvalues --  -10.23121 -10.21275 -10.21171 -10.20737 -10.20230
 Alpha  occ. eigenvalues --  -10.20207 -10.20142 -10.20094 -10.19919  -8.15358
 Alpha  occ. eigenvalues --   -8.13133  -6.11875  -6.11780  -6.11645  -6.09567
 Alpha  occ. eigenvalues --   -6.09484  -6.09406  -1.12482  -1.11005  -1.01427
 Alpha  occ. eigenvalues --   -1.00727  -0.95383  -0.86963  -0.86501  -0.80406
 Alpha  occ. eigenvalues --   -0.78099  -0.75626  -0.74989  -0.73121  -0.69093
 Alpha  occ. eigenvalues --   -0.65031  -0.61828  -0.61673  -0.59388  -0.57848
 Alpha  occ. eigenvalues --   -0.54880  -0.53354  -0.52434  -0.51300  -0.49992
 Alpha  occ. eigenvalues --   -0.48832  -0.48073  -0.47497  -0.47155  -0.45848
 Alpha  occ. eigenvalues --   -0.45613  -0.45563  -0.44589  -0.44086  -0.43554
 Alpha  occ. eigenvalues --   -0.43063  -0.42265  -0.40380  -0.39907  -0.38992
 Alpha  occ. eigenvalues --   -0.37179  -0.36328  -0.35084  -0.34855  -0.34789
 Alpha  occ. eigenvalues --   -0.33410  -0.33024  -0.32621  -0.31689  -0.31538
 Alpha  occ. eigenvalues --   -0.30933  -0.29845  -0.28805  -0.26415  -0.25445
 Alpha virt. eigenvalues --   -0.01853  -0.01616   0.02389   0.03660   0.04773
 Alpha virt. eigenvalues --    0.05380   0.06366   0.06885   0.07740   0.08354
 Alpha virt. eigenvalues --    0.09347   0.09676   0.09970   0.11167   0.12299

 Mulliken charges:
               1
     1  C   -0.635063
     2  S    1.173850
     3  N   -0.719885
     4  C    0.169197
     5  C   -0.507119
     6  S    1.106615
     7  C   -0.497963
     8  O   -0.524129
     9  O   -0.549253
    10  C   -0.284121
    11  C   -0.372266
    12  C    0.164488
    13  C   -0.229591
    14  C   -0.124525
    15  C   -0.134833
    16  C   -0.134854
    17  C   -0.200934
    18  O   -0.541037
    19  O   -0.553420
    20  H    0.218794
    21  H    0.232395
    22  H    0.210593
    23  H    0.374101
    24  H    0.222438
    25  H    0.256045
    26  H    0.223319
    27  H    0.232055
    28  H    0.156568
    29  H    0.184820
    30  H    0.177451
    31  H    0.161688
    32  H    0.144324
    33  H    0.152526
    34  H    0.150210
    35  H    0.151531
    36  H    0.145984
 Sum of Mulliken charges =   0.00000

 Dipole moment (field-independent basis, Debye):
    X=             -7.6693    Y=             -3.1300    Z=              3.4540  Tot=              8.9747
 Quadrupole moment (field-independent basis, Debye-Ang):
   XX=           -148.9376   YY=           -140.5006   ZZ=           -118.0918
   XY=              4.8777   XZ=             -1.2586   YZ=             14.0201

 Normal termination of Gaussian 09 at Sat Aug  8 00:20:45 2020.
