 Gaussian 09, Revision D.01,

 -----------------
 #p b3lyp/6-31G(d)
 -----------------

 ----------------
 SM38.n.4.pdb.xyz
 ----------------
 Symbolic Z-matrix:
 Charge =  0 Multiplicity = 1

 SCF Done:  E(RB3LYP) =  -1619.38317960     A.U. after   16 cycles
 Normal termination of Gaussian 09 at Fri Aug  7 23:39:19 2020.
 Gaussian 09:  AM64L-G09RevD.01 24-Apr-2013

 ----------------------------------------------------------------------
 #p b3lyp/6-31G(d) scrf=(iefpcm,read,solvent=Water) geom=allcheck guess
 =read
 ----------------------------------------------------------------------

 Structure from the checkpoint file:  "SM38.n.4.pdb.xyz.mst.n.w.chk"
 ----------------
 SM38.n.4.pdb.xyz
 ----------------
 Charge =  0 Multiplicity = 1

                         Standard orientation:
 ---------------------------------------------------------------------
 Center     Atomic      Atomic             Coordinates (Angstroms)
 Number     Number       Type             X           Y           Z
 ---------------------------------------------------------------------
      1          6           0       -1.268352    2.107154    1.435041
      2         16           0       -0.331508    2.248253   -0.089930
      3          7           0        0.149557    0.735339   -0.619895
      4          6           0        1.042990   -0.202280    0.086975
      5          6           0        2.318189    0.502282    0.659640
      6         16           0        3.374225   -0.726258   -0.167370
      7          6           0        1.786362   -1.075434   -0.985888
      8          8           0        4.404513   -0.146678   -1.048822
      9          8           0        3.771142   -1.819911    0.744584
     10          6           0        0.368830   -1.072655    1.169918
     11          6           0       -0.664989   -2.122240    0.706977
     12          6           0       -2.014661   -1.610445    0.244503
     13          6           0       -2.379586   -1.663960   -1.107642
     14          6           0       -3.630511   -1.209701   -1.535364
     15          6           0       -4.543277   -0.704138   -0.610110
     16          6           0       -4.200106   -0.659856    0.743614
     17          6           0       -2.947654   -1.110379    1.165444
     18          8           0       -1.247270    2.719826   -1.138631
     19          8           0        0.879311    3.027497    0.209268
     20          1           0       -2.130421    1.464083    1.261936
     21          1           0       -1.581726    3.116627    1.701978
     22          1           0       -0.626338    1.693144    2.211722
     23          1           0       -0.639741    0.268307   -1.071228
     24          1           0        2.416562    0.517833    1.743859
     25          1           0        2.495359    1.487597    0.234859
     26          1           0        1.536629   -2.133596   -1.032233
     27          1           0        1.772258   -0.621702   -1.977492
     28          1           0       -0.074201   -0.412838    1.921738
     29          1           0        1.173471   -1.613257    1.678148
     30          1           0       -0.819647   -2.793639    1.558614
     31          1           0       -0.229054   -2.737619   -0.085376
     32          1           0       -1.677432   -2.070669   -1.830272
     33          1           0       -3.889620   -1.259224   -2.587542
     34          1           0       -5.517314   -0.355921   -0.936943
     35          1           0       -4.908618   -0.280908    1.472793
     36          1           0       -2.695518   -1.083484    2.221666
 ---------------------------------------------------------------------

 SCF Done:  E(RB3LYP) =  -1619.41062009     A.U. after   11 cycles

 The electronic state is 1-A.
 Alpha  occ. eigenvalues --  -89.12994 -89.10242 -19.15965 -19.15787 -19.15749
 Alpha  occ. eigenvalues --  -19.15582 -14.38352 -10.28348 -10.23414 -10.23159
 Alpha  occ. eigenvalues --  -10.22625 -10.20724 -10.20551 -10.19987 -10.19628
 Alpha  occ. eigenvalues --  -10.19603 -10.19500 -10.19436 -10.19368  -8.15495
 Alpha  occ. eigenvalues --   -8.13306  -6.12005  -6.11930  -6.11771  -6.09753
 Alpha  occ. eigenvalues --   -6.09657  -6.09563  -1.12540  -1.11074  -1.01405
 Alpha  occ. eigenvalues --   -1.00771  -0.95314  -0.86558  -0.86213  -0.79833
 Alpha  occ. eigenvalues --   -0.77877  -0.74993  -0.74523  -0.72878  -0.68824
 Alpha  occ. eigenvalues --   -0.64664  -0.61659  -0.61071  -0.58826  -0.57472
 Alpha  occ. eigenvalues --   -0.54750  -0.53138  -0.51810  -0.51053  -0.49966
 Alpha  occ. eigenvalues --   -0.48824  -0.48101  -0.46937  -0.46811  -0.45656
 Alpha  occ. eigenvalues --   -0.45317  -0.45082  -0.44344  -0.43801  -0.43136
 Alpha  occ. eigenvalues --   -0.42400  -0.41854  -0.39963  -0.39248  -0.38575
 Alpha  occ. eigenvalues --   -0.36685  -0.36108  -0.34948  -0.34354  -0.34190
 Alpha  occ. eigenvalues --   -0.33591  -0.33182  -0.32842  -0.31864  -0.31699
 Alpha  occ. eigenvalues --   -0.31154  -0.30037  -0.28882  -0.25842  -0.24974
 Alpha virt. eigenvalues --   -0.01328  -0.01042   0.02509   0.03728   0.04529
 Alpha virt. eigenvalues --    0.05517   0.06356   0.07348   0.08479   0.08882
 Alpha virt. eigenvalues --    0.09575   0.10019   0.10302   0.11672   0.12754

 Mulliken charges:
               1
     1  C   -0.634184
     2  S    1.163635
     3  N   -0.716477
     4  C    0.159066
     5  C   -0.505108
     6  S    1.110901
     7  C   -0.493597
     8  O   -0.551736
     9  O   -0.570486
    10  C   -0.282938
    11  C   -0.370880
    12  C    0.156998
    13  C   -0.226448
    14  C   -0.135340
    15  C   -0.146812
    16  C   -0.140002
    17  C   -0.206568
    18  O   -0.567665
    19  O   -0.571073
    20  H    0.224411
    21  H    0.242274
    22  H    0.223861
    23  H    0.391253
    24  H    0.238690
    25  H    0.255671
    26  H    0.239300
    27  H    0.241009
    28  H    0.168524
    29  H    0.180377
    30  H    0.181085
    31  H    0.167882
    32  H    0.153672
    33  H    0.156011
    34  H    0.154022
    35  H    0.156324
    36  H    0.154348
 Sum of Mulliken charges =   0.00000

 Dipole moment (field-independent basis, Debye):
    X=             -8.3984    Y=             -3.8595    Z=              3.9255  Tot=             10.0418
 Quadrupole moment (field-independent basis, Debye-Ang):
   XX=           -153.7784   YY=           -142.8332   ZZ=           -116.7500
   XY=              4.5061   XZ=             -1.6652   YZ=             14.7748

 Normal termination of Gaussian 09 at Fri Aug  7 23:43:49 2020.
