 Gaussian 09, Revision D.01,

 -----------------
 #p b3lyp/6-31G(d)
 -----------------

 ----------------
 SM38.n.2.pdb.xyz
 ----------------
 Symbolic Z-matrix:
 Charge =  0 Multiplicity = 1

 SCF Done:  E(RB3LYP) =  -1619.38727839     A.U. after   15 cycles
 Normal termination of Gaussian 09 at Sat Aug  8 00:13:38 2020.
 Gaussian 09:  AM64L-G09RevD.01 24-Apr-2013

 ----------------------------------------------------------------------
 #p b3lyp/6-31G(d) scrf=(iefpcm,read,solvent=n-Octanol) geom=allcheck g
 uess=read
 ----------------------------------------------------------------------

 Structure from the checkpoint file:  "SM38.n.2.pdb.xyz.mst.n.o.chk"
 ----------------
 SM38.n.2.pdb.xyz
 ----------------
 Charge =  0 Multiplicity = 1

                         Standard orientation:
 ---------------------------------------------------------------------
 Center     Atomic      Atomic             Coordinates (Angstroms)
 Number     Number       Type             X           Y           Z
 ---------------------------------------------------------------------
      1          6           0       -3.661456   -2.681729   -0.092371
      2         16           0       -1.919889   -2.267610    0.012702
      3          7           0       -1.874853   -0.809482   -0.861214
      4          6           0       -0.979403    0.268877   -0.386356
      5          6           0       -1.498850    0.864787    0.961802
      6         16           0       -1.836060    2.466785    0.157585
      7          6           0       -1.252495    1.516691   -1.291385
      8          8           0       -3.271074    2.786894    0.088016
      9          8           0       -0.878906    3.512124    0.555384
     10          6           0        0.498189   -0.161616   -0.356780
     11          6           0        1.508102    0.905781    0.101193
     12          6           0        2.924836    0.371706    0.085728
     13          6           0        3.757680    0.591386   -1.017535
     14          6           0        5.053178    0.075751   -1.052670
     15          6           0        5.536603   -0.671589    0.022526
     16          6           0        4.716854   -0.896289    1.130406
     17          6           0        3.421917   -0.378240    1.160076
     18          8           0       -1.587920   -1.932262    1.403426
     19          8           0       -1.163395   -3.310083   -0.692550
     20          1           0       -4.240383   -1.892088    0.383646
     21          1           0       -3.793710   -3.630200    0.428568
     22          1           0       -3.933997   -2.786482   -1.141271
     23          1           0       -1.707199   -1.029252   -1.845101
     24          1           0       -0.753107    0.950140    1.748379
     25          1           0       -2.406764    0.405372    1.343546
     26          1           0       -0.373480    1.961387   -1.757260
     27          1           0       -2.052258    1.375530   -2.018119
     28          1           0        0.768435   -0.504683   -1.361538
     29          1           0        0.570986   -1.028870    0.305255
     30          1           0        1.253761    1.243878    1.110878
     31          1           0        1.450023    1.784492   -0.547684
     32          1           0        3.386551    1.177884   -1.853591
     33          1           0        5.684420    0.261052   -1.915842
     34          1           0        6.545519   -1.071982    0.000462
     35          1           0        5.087048   -1.470243    1.973003
     36          1           0        2.792753   -0.552840    2.028554
 ---------------------------------------------------------------------

 SCF Done:  E(RB3LYP) =  -1619.41763411     A.U. after   11 cycles

 The electronic state is 1-A.
 Alpha  occ. eigenvalues --  -89.12712 -89.09703 -19.15839 -19.15694 -19.15329
 Alpha  occ. eigenvalues --  -19.15279 -14.38326 -10.28170 -10.23565 -10.23180
 Alpha  occ. eigenvalues --  -10.23140 -10.20453 -10.20025 -10.20000 -10.19137
 Alpha  occ. eigenvalues --  -10.19121 -10.19016 -10.19012 -10.18985  -8.15307
 Alpha  occ. eigenvalues --   -8.12776  -6.11811  -6.11728  -6.11576  -6.09210
 Alpha  occ. eigenvalues --   -6.09129  -6.09043  -1.12533  -1.10676  -1.01515
 Alpha  occ. eigenvalues --   -1.00418  -0.95332  -0.86328  -0.85590  -0.79766
 Alpha  occ. eigenvalues --   -0.78361  -0.74522  -0.73987  -0.73097  -0.68252
 Alpha  occ. eigenvalues --   -0.64099  -0.61290  -0.60674  -0.58641  -0.57446
 Alpha  occ. eigenvalues --   -0.54765  -0.53107  -0.51099  -0.50716  -0.49762
 Alpha  occ. eigenvalues --   -0.49689  -0.47951  -0.47556  -0.46174  -0.45572
 Alpha  occ. eigenvalues --   -0.45007  -0.44721  -0.43896  -0.43572  -0.42812
 Alpha  occ. eigenvalues --   -0.42015  -0.41453  -0.41054  -0.39103  -0.38061
 Alpha  occ. eigenvalues --   -0.36454  -0.35565  -0.35506  -0.34308  -0.33917
 Alpha  occ. eigenvalues --   -0.33622  -0.33094  -0.32398  -0.32110  -0.31406
 Alpha  occ. eigenvalues --   -0.30779  -0.29434  -0.28408  -0.25220  -0.24471
 Alpha virt. eigenvalues --   -0.00406  -0.00267   0.02457   0.03223   0.04517
 Alpha virt. eigenvalues --    0.05489   0.06380   0.07417   0.07981   0.09005
 Alpha virt. eigenvalues --    0.09224   0.09275   0.10085   0.10414   0.11720

 Mulliken charges:
               1
     1  C   -0.620808
     2  S    1.196032
     3  N   -0.724773
     4  C    0.174551
     5  C   -0.476000
     6  S    1.110579
     7  C   -0.506021
     8  O   -0.533178
     9  O   -0.544972
    10  C   -0.282161
    11  C   -0.385872
    12  C    0.168172
    13  C   -0.188125
    14  C   -0.138477
    15  C   -0.140438
    16  C   -0.138720
    17  C   -0.184364
    18  O   -0.570217
    19  O   -0.535770
    20  H    0.221677
    21  H    0.228175
    22  H    0.221164
    23  H    0.381145
    24  H    0.221409
    25  H    0.230998
    26  H    0.223172
    27  H    0.227531
    28  H    0.159802
    29  H    0.188884
    30  H    0.164070
    31  H    0.161068
    32  H    0.132984
    33  H    0.140859
    34  H    0.140099
    35  H    0.141577
    36  H    0.135950
 Sum of Mulliken charges =   0.00000

 Dipole moment (field-independent basis, Debye):
    X=             -0.6575    Y=             -3.5303    Z=             -3.7022  Tot=              5.1577
 Quadrupole moment (field-independent basis, Debye-Ang):
   XX=           -115.5451   YY=           -154.3792   ZZ=           -116.7480
   XY=             18.5004   XZ=              4.1191   YZ=             -5.4381

 Normal termination of Gaussian 09 at Sat Aug  8 00:17:21 2020.
