 Gaussian 09, Revision D.01,

 -----------------
 #p b3lyp/6-31G(d)
 -----------------

 ----------------
 SM38.n.7.pdb.xyz
 ----------------
 Symbolic Z-matrix:
 Charge =  0 Multiplicity = 1

 SCF Done:  E(RB3LYP) =  -1619.37846483     A.U. after   16 cycles
 Normal termination of Gaussian 09 at Fri Aug  7 23:40:03 2020.
 Gaussian 09:  AM64L-G09RevD.01 24-Apr-2013

 ----------------------------------------------------------------------
 #p b3lyp/6-31G(d) scrf=(iefpcm,read,solvent=Water) geom=allcheck guess
 =read
 ----------------------------------------------------------------------

 Structure from the checkpoint file:  "SM38.n.7.pdb.xyz.mst.n.w.chk"
 ----------------
 SM38.n.7.pdb.xyz
 ----------------
 Charge =  0 Multiplicity = 1

                         Standard orientation:
 ---------------------------------------------------------------------
 Center     Atomic      Atomic             Coordinates (Angstroms)
 Number     Number       Type             X           Y           Z
 ---------------------------------------------------------------------
      1          6           0        4.100656   -2.271396    0.030085
      2         16           0        3.098641   -0.850070   -0.392094
      3          7           0        1.726214   -1.173438    0.543957
      4          6           0        0.606666   -0.212473    0.669869
      5          6           0        0.058462    0.373736   -0.683138
      6         16           0        0.421743    2.068175   -0.114337
      7          6           0        1.050137    1.136363    1.323292
      8          8           0        1.481064    2.734324   -0.896691
      9          8           0       -0.796368    2.844947    0.205353
     10          6           0       -0.443615   -0.955395    1.520673
     11          6           0       -1.798901   -0.251539    1.741998
     12          6           0       -2.843878   -0.481732    0.665153
     13          6           0       -3.190468   -1.782032    0.267213
     14          6           0       -4.183437   -1.999695   -0.687615
     15          6           0       -4.853448   -0.916753   -1.262735
     16          6           0       -4.520194    0.380955   -0.874868
     17          6           0       -3.524302    0.594685    0.081372
     18          8           0        3.722453    0.376508    0.136124
     19          8           0        2.814650   -0.889764   -1.841136
     20          1           0        4.278224   -2.270063    1.103897
     21          1           0        5.036019   -2.156465   -0.519686
     22          1           0        3.588045   -3.179021   -0.286811
     23          1           0        1.370967   -2.087716    0.247585
     24          1           0       -1.004127    0.222213   -0.857894
     25          1           0        0.647394    0.110885   -1.561050
     26          1           0        0.523521    1.399460    2.240060
     27          1           0        2.125717    1.253860    1.435891
     28          1           0        0.026996   -1.149094    2.488011
     29          1           0       -0.628813   -1.932490    1.063570
     30          1           0       -1.662030    0.823583    1.890864
     31          1           0       -2.195017   -0.632937    2.690640
     32          1           0       -2.680934   -2.632518    0.712132
     33          1           0       -4.436125   -3.013457   -0.979703
     34          1           0       -5.626687   -1.085147   -2.006774
     35          1           0       -5.032458    1.230404   -1.315607
     36          1           0       -3.260809    1.606422    0.373079
 ---------------------------------------------------------------------

 SCF Done:  E(RB3LYP) =  -1619.41047519     A.U. after   11 cycles

 The electronic state is 1-A.
 Alpha  occ. eigenvalues --  -89.12722 -89.09709 -19.15681 -19.15580 -19.15470
 Alpha  occ. eigenvalues --  -19.15457 -14.37937 -10.27844 -10.22666 -10.22598
 Alpha  occ. eigenvalues --  -10.22428 -10.20417 -10.20026 -10.19697 -10.19179
 Alpha  occ. eigenvalues --  -10.19116 -10.19012 -10.18997 -10.18856  -8.15321
 Alpha  occ. eigenvalues --   -8.12799  -6.11818  -6.11736  -6.11601  -6.09250
 Alpha  occ. eigenvalues --   -6.09148  -6.09045  -1.12190  -1.10592  -1.00947
 Alpha  occ. eigenvalues --   -1.00323  -0.95011  -0.86317  -0.85476  -0.79511
 Alpha  occ. eigenvalues --   -0.78076  -0.74558  -0.74093  -0.72198  -0.68495
 Alpha  occ. eigenvalues --   -0.62826  -0.62027  -0.60463  -0.58144  -0.56956
 Alpha  occ. eigenvalues --   -0.54213  -0.52289  -0.51449  -0.50622  -0.49849
 Alpha  occ. eigenvalues --   -0.48791  -0.48200  -0.46637  -0.46061  -0.45573
 Alpha  occ. eigenvalues --   -0.44936  -0.44029  -0.43904  -0.43501  -0.42709
 Alpha  occ. eigenvalues --   -0.41882  -0.41000  -0.40260  -0.39719  -0.36923
 Alpha  occ. eigenvalues --   -0.36472  -0.36133  -0.35130  -0.34034  -0.33730
 Alpha  occ. eigenvalues --   -0.33548  -0.32835  -0.32439  -0.32133  -0.31329
 Alpha  occ. eigenvalues --   -0.30671  -0.29712  -0.27627  -0.25355  -0.24532
 Alpha virt. eigenvalues --   -0.00725  -0.00433   0.02947   0.04178   0.04691
 Alpha virt. eigenvalues --    0.05152   0.05811   0.06759   0.08372   0.09291
 Alpha virt. eigenvalues --    0.09940   0.10056   0.10999   0.11781   0.12848

 Mulliken charges:
               1
     1  C   -0.634228
     2  S    1.174404
     3  N   -0.719010
     4  C    0.181463
     5  C   -0.511973
     6  S    1.120678
     7  C   -0.501638
     8  O   -0.565416
     9  O   -0.572815
    10  C   -0.299819
    11  C   -0.373226
    12  C    0.142718
    13  C   -0.194633
    14  C   -0.148197
    15  C   -0.151113
    16  C   -0.145688
    17  C   -0.205394
    18  O   -0.571958
    19  O   -0.562555
    20  H    0.234875
    21  H    0.240025
    22  H    0.234745
    23  H    0.407226
    24  H    0.234477
    25  H    0.242647
    26  H    0.232832
    27  H    0.254373
    28  H    0.179404
    29  H    0.174001
    30  H    0.168495
    31  H    0.181848
    32  H    0.149565
    33  H    0.150411
    34  H    0.149354
    35  H    0.150247
    36  H    0.153876
 Sum of Mulliken charges =   0.00000

 Dipole moment (field-independent basis, Debye):
    X=             -1.3117    Y=            -11.2950    Z=              4.8257  Tot=             12.3526
 Quadrupole moment (field-independent basis, Debye-Ang):
   XX=           -125.4154   YY=           -128.3864   ZZ=           -125.7618
   XY=            -17.2992   XZ=             12.8265   YZ=              3.0261

 Normal termination of Gaussian 09 at Fri Aug  7 23:44:21 2020.
