 Gaussian 09, Revision D.01,

 -----------------
 #p b3lyp/6-31G(d)
 -----------------

 ----------------
 SM38.n.7.pdb.xyz
 ----------------
 Symbolic Z-matrix:
 Charge =  0 Multiplicity = 1

 SCF Done:  E(RB3LYP) =  -1619.38039600     A.U. after   16 cycles
 Normal termination of Gaussian 09 at Sat Aug  8 00:18:52 2020.
 Gaussian 09:  AM64L-G09RevD.01 24-Apr-2013

 ----------------------------------------------------------------------
 #p b3lyp/6-31G(d) scrf=(iefpcm,read,solvent=n-Octanol) geom=allcheck g
 uess=read
 ----------------------------------------------------------------------

 Structure from the checkpoint file:  "SM38.n.7.pdb.xyz.mst.n.o.chk"
 ----------------
 SM38.n.7.pdb.xyz
 ----------------
 Charge =  0 Multiplicity = 1

                         Standard orientation:
 ---------------------------------------------------------------------
 Center     Atomic      Atomic             Coordinates (Angstroms)
 Number     Number       Type             X           Y           Z
 ---------------------------------------------------------------------
      1          6           0        4.157381   -2.210906    0.109573
      2         16           0        3.086559   -0.875115   -0.422819
      3          7           0        1.748147   -1.159883    0.588946
      4          6           0        0.640490   -0.183580    0.683414
      5          6           0        0.110379    0.378346   -0.685852
      6         16           0        0.364454    2.089209   -0.097406
      7          6           0        1.100980    1.175170    1.303304
      8          8           0        1.332359    2.854241   -0.896966
      9          8           0       -0.905642    2.735442    0.291650
     10          6           0       -0.428397   -0.885776    1.542026
     11          6           0       -1.773007   -0.147535    1.720503
     12          6           0       -2.812591   -0.448874    0.656353
     13          6           0       -3.228174   -1.766603    0.419741
     14          6           0       -4.209695   -2.048244   -0.529247
     15          6           0       -4.795107   -1.012906   -1.261477
     16          6           0       -4.388762    0.302048   -1.035492
     17          6           0       -3.406223    0.581805   -0.083604
     18          8           0        3.671009    0.412515   -0.027146
     19          8           0        2.747904   -1.086259   -1.840677
     20          1           0        4.373769   -2.087759    1.168720
     21          1           0        5.067568   -2.127471   -0.485443
     22          1           0        3.670535   -3.165115   -0.087844
     23          1           0        1.379073   -2.083316    0.349142
     24          1           0       -0.931748    0.162851   -0.914411
     25          1           0        0.760875    0.152203   -1.529811
     26          1           0        0.647055    1.435282    2.259958
     27          1           0        2.182139    1.302537    1.321932
     28          1           0        0.030009   -1.064328    2.519435
     29          1           0       -0.632064   -1.871032    1.107765
     30          1           0       -1.618646    0.933151    1.776190
     31          1           0       -2.175485   -0.450164    2.693380
     32          1           0       -2.782937   -2.578561    0.988443
     33          1           0       -4.520773   -3.075899   -0.695429
     34          1           0       -5.559525   -1.230677   -2.000726
     35          1           0       -4.835706    1.113326   -1.600934
     36          1           0       -3.076072    1.603470    0.080264
 ---------------------------------------------------------------------

 SCF Done:  E(RB3LYP) =  -1619.41114404     A.U. after   11 cycles

 The electronic state is 1-A.
 Alpha  occ. eigenvalues --  -89.12970 -89.09474 -19.15935 -19.15828 -19.15088
 Alpha  occ. eigenvalues --  -19.15026 -14.38622 -10.28201 -10.23543 -10.22756
 Alpha  occ. eigenvalues --  -10.22543 -10.21075 -10.19985 -10.19836 -10.19250
 Alpha  occ. eigenvalues --  -10.19093 -10.19088 -10.19019 -10.18662  -8.15585
 Alpha  occ. eigenvalues --   -8.12549  -6.12084  -6.11989  -6.11872  -6.08988
 Alpha  occ. eigenvalues --   -6.08899  -6.08815  -1.12624  -1.10399  -1.01437
 Alpha  occ. eigenvalues --   -1.00121  -0.95542  -0.86453  -0.85518  -0.79734
 Alpha  occ. eigenvalues --   -0.78676  -0.74574  -0.74285  -0.72370  -0.68682
 Alpha  occ. eigenvalues --   -0.63150  -0.62376  -0.60539  -0.58301  -0.57199
 Alpha  occ. eigenvalues --   -0.54776  -0.52561  -0.51571  -0.50775  -0.50007
 Alpha  occ. eigenvalues --   -0.49068  -0.48427  -0.46739  -0.46075  -0.45838
 Alpha  occ. eigenvalues --   -0.45104  -0.44698  -0.44318  -0.43702  -0.43027
 Alpha  occ. eigenvalues --   -0.41877  -0.41176  -0.40514  -0.40124  -0.37106
 Alpha  occ. eigenvalues --   -0.36736  -0.36302  -0.35155  -0.34108  -0.33910
 Alpha  occ. eigenvalues --   -0.33622  -0.32834  -0.32316  -0.32022  -0.31547
 Alpha  occ. eigenvalues --   -0.30133  -0.29606  -0.27864  -0.25261  -0.24522
 Alpha virt. eigenvalues --   -0.00738  -0.00367   0.02813   0.03907   0.04513
 Alpha virt. eigenvalues --    0.05052   0.05693   0.06237   0.07614   0.08665
 Alpha virt. eigenvalues --    0.09386   0.09794   0.10571   0.11289   0.12858

 Mulliken charges:
               1
     1  C   -0.636489
     2  S    1.174369
     3  N   -0.708594
     4  C    0.182253
     5  C   -0.531258
     6  S    1.121376
     7  C   -0.505142
     8  O   -0.529403
     9  O   -0.555626
    10  C   -0.299055
    11  C   -0.382381
    12  C    0.143407
    13  C   -0.187406
    14  C   -0.138692
    15  C   -0.140033
    16  C   -0.136938
    17  C   -0.209691
    18  O   -0.545242
    19  O   -0.538284
    20  H    0.231024
    21  H    0.235691
    22  H    0.222208
    23  H    0.366925
    24  H    0.231974
    25  H    0.244343
    26  H    0.220193
    27  H    0.255995
    28  H    0.174499
    29  H    0.159849
    30  H    0.180751
    31  H    0.172493
    32  H    0.136596
    33  H    0.140560
    34  H    0.140525
    35  H    0.141891
    36  H    0.167309
 Sum of Mulliken charges =   0.00000

 Dipole moment (field-independent basis, Debye):
    X=             -0.1744    Y=             -9.3910    Z=              4.4030  Tot=             10.3734
 Quadrupole moment (field-independent basis, Debye-Ang):
   XX=           -122.0489   YY=           -129.4131   ZZ=           -125.9876
   XY=            -13.7072   XZ=             12.8478   YZ=              1.2414

 Normal termination of Gaussian 09 at Sat Aug  8 00:22:54 2020.
