 Gaussian 09, Revision D.01,

 -----------------
 #p b3lyp/6-31G(d)
 -----------------

 ----------------
 SM38.n.8.pdb.xyz
 ----------------
 Symbolic Z-matrix:
 Charge =  0 Multiplicity = 1

 SCF Done:  E(RB3LYP) =  -1619.38532790     A.U. after   16 cycles
 Normal termination of Gaussian 09 at Fri Aug  7 23:40:22 2020.
 Gaussian 09:  AM64L-G09RevD.01 24-Apr-2013

 ----------------------------------------------------------------------
 #p b3lyp/6-31G(d) scrf=(iefpcm,read,solvent=Water) geom=allcheck guess
 =read
 ----------------------------------------------------------------------

 Structure from the checkpoint file:  "SM38.n.8.pdb.xyz.mst.n.w.chk"
 ----------------
 SM38.n.8.pdb.xyz
 ----------------
 Charge =  0 Multiplicity = 1

                         Standard orientation:
 ---------------------------------------------------------------------
 Center     Atomic      Atomic             Coordinates (Angstroms)
 Number     Number       Type             X           Y           Z
 ---------------------------------------------------------------------
      1          6           0        1.977759    2.321202   -0.571530
      2         16           0        0.333291    2.102534    0.096022
      3          7           0       -0.189858    0.710236   -0.710686
      4          6           0       -1.112911   -0.206932   -0.014352
      5          6           0       -1.962286   -0.994377   -1.066664
      6         16           0       -3.478264   -0.643714   -0.116759
      7          6           0       -2.322396    0.488046    0.718796
      8          8           0       -4.533760    0.028589   -0.897643
      9          8           0       -3.860511   -1.781768    0.743628
     10          6           0       -0.379978   -1.166793    0.939855
     11          6           0        0.651955   -2.113975    0.296097
     12          6           0        2.047197   -1.561040    0.094157
     13          6           0        2.795926   -1.087234    1.180746
     14          6           0        4.102394   -0.626868    1.007689
     15          6           0        4.686532   -0.634808   -0.261697
     16          6           0        3.954063   -1.106885   -1.352111
     17          6           0        2.646892   -1.565812   -1.172239
     18          8           0        0.410431    1.771097    1.527873
     19          8           0       -0.480496    3.265321   -0.305357
     20          1           0        2.583730    1.456962   -0.302908
     21          1           0        2.376653    3.234048   -0.126326
     22          1           0        1.900867    2.429921   -1.652261
     23          1           0       -0.523462    0.990301   -1.636299
     24          1           0       -1.741103   -2.054709   -1.166126
     25          1           0       -2.029900   -0.525862   -2.049838
     26          1           0       -2.340333    0.419057    1.806010
     27          1           0       -2.504913    1.509925    0.385569
     28          1           0       -1.153490   -1.772624    1.421508
     29          1           0        0.088119   -0.571044    1.726241
     30          1           0        0.273517   -2.488264   -0.662376
     31          1           0        0.724187   -2.991355    0.949025
     32          1           0        2.353321   -1.082909    2.172728
     33          1           0        4.664110   -0.266042    1.863610
     34          1           0        5.703126   -0.279324   -0.398331
     35          1           0        4.397499   -1.119961   -2.342159
     36          1           0        2.080460   -1.933946   -2.021967
 ---------------------------------------------------------------------

 SCF Done:  E(RB3LYP) =  -1619.41308287     A.U. after   11 cycles

 The electronic state is 1-A.
 Alpha  occ. eigenvalues --  -89.12423 -89.10091 -19.15849 -19.15662 -19.15553
 Alpha  occ. eigenvalues --  -19.15409 -14.37538 -10.27773 -10.23468 -10.22995
 Alpha  occ. eigenvalues --  -10.22165 -10.19693 -10.19489 -10.19199 -10.19015
 Alpha  occ. eigenvalues --  -10.18954 -10.18831 -10.18711 -10.18697  -8.15012
 Alpha  occ. eigenvalues --   -8.13166  -6.11513  -6.11445  -6.11273  -6.09614
 Alpha  occ. eigenvalues --   -6.09517  -6.09418  -1.12097  -1.10978  -1.00949
 Alpha  occ. eigenvalues --   -1.00702  -0.94724  -0.86106  -0.85500  -0.79164
 Alpha  occ. eigenvalues --   -0.77637  -0.74307  -0.73728  -0.72767  -0.67765
 Alpha  occ. eigenvalues --   -0.64061  -0.60802  -0.60174  -0.58507  -0.56741
 Alpha  occ. eigenvalues --   -0.54218  -0.52531  -0.51165  -0.51008  -0.49431
 Alpha  occ. eigenvalues --   -0.48662  -0.47696  -0.46582  -0.45931  -0.45525
 Alpha  occ. eigenvalues --   -0.45063  -0.44286  -0.43959  -0.43421  -0.42447
 Alpha  occ. eigenvalues --   -0.41853  -0.41356  -0.39257  -0.38440  -0.37438
 Alpha  occ. eigenvalues --   -0.36627  -0.35608  -0.35154  -0.34080  -0.33581
 Alpha  occ. eigenvalues --   -0.33158  -0.32908  -0.32788  -0.31727  -0.31288
 Alpha  occ. eigenvalues --   -0.30798  -0.30041  -0.27806  -0.25125  -0.24042
 Alpha virt. eigenvalues --   -0.00371  -0.00056   0.02946   0.03383   0.04560
 Alpha virt. eigenvalues --    0.05418   0.07446   0.07954   0.08264   0.09601
 Alpha virt. eigenvalues --    0.10014   0.10533   0.11347   0.11856   0.12577

 Mulliken charges:
               1
     1  C   -0.634509
     2  S    1.198897
     3  N   -0.719929
     4  C    0.172521
     5  C   -0.507177
     6  S    1.111386
     7  C   -0.494948
     8  O   -0.554695
     9  O   -0.570185
    10  C   -0.282656
    11  C   -0.363620
    12  C    0.186915
    13  C   -0.197196
    14  C   -0.151846
    15  C   -0.154790
    16  C   -0.147563
    17  C   -0.204254
    18  O   -0.583050
    19  O   -0.570098
    20  H    0.236845
    21  H    0.231234
    22  H    0.228257
    23  H    0.405941
    24  H    0.241738
    25  H    0.235024
    26  H    0.237992
    27  H    0.234046
    28  H    0.164909
    29  H    0.193797
    30  H    0.155711
    31  H    0.171595
    32  H    0.144914
    33  H    0.148606
    34  H    0.147351
    35  H    0.147634
    36  H    0.141203
 Sum of Mulliken charges =   0.00000

 Dipole moment (field-independent basis, Debye):
    X=              7.9660    Y=             -1.0372    Z=             -4.0439  Tot=              8.9937
 Quadrupole moment (field-independent basis, Debye-Ang):
   XX=           -152.9307   YY=           -137.1884   ZZ=           -118.4834
   XY=              2.8603   XZ=             -2.8074   YZ=             -0.7632

 Normal termination of Gaussian 09 at Fri Aug  7 23:44:53 2020.
