 Gaussian 09, Revision D.01,

 -----------------
 #p b3lyp/6-31G(d)
 -----------------

 -----------------
 SM38.n.15.pdb.xyz
 -----------------
 Symbolic Z-matrix:
 Charge =  0 Multiplicity = 1

 SCF Done:  E(RB3LYP) =  -1619.38265112     A.U. after   15 cycles
 Normal termination of Gaussian 09 at Fri Aug  7 23:28:38 2020.
 Gaussian 09:  AM64L-G09RevD.01 24-Apr-2013

 ----------------------------------------------------------------------
 #p b3lyp/6-31G(d) scrf=(iefpcm,read,solvent=Water) geom=allcheck guess
 =read
 ----------------------------------------------------------------------

 Structure from the checkpoint file:  "SM38.n.15.pdb.xyz.mst.n.w.chk"
 -----------------
 SM38.n.15.pdb.xyz
 -----------------
 Charge =  0 Multiplicity = 1

                         Standard orientation:
 ---------------------------------------------------------------------
 Center     Atomic      Atomic             Coordinates (Angstroms)
 Number     Number       Type             X           Y           Z
 ---------------------------------------------------------------------
      1          6           0        3.384327   -2.166898    1.498359
      2         16           0        3.080250   -1.504269   -0.138209
      3          7           0        1.410627   -1.352959   -0.200174
      4          6           0        0.670251   -0.083388   -0.115892
      5          6           0        0.996598    0.975427   -1.231545
      6         16           0        1.261615    2.256121    0.038866
      7          6           0        1.075371    0.790427    1.116406
      8          8           0        2.616147    2.837536    0.045902
      9          8           0        0.115682    3.181580    0.153265
     10          6           0       -0.814587   -0.509384   -0.097194
     11          6           0       -1.862331    0.612939   -0.003765
     12          6           0       -3.266057    0.047331    0.009398
     13          6           0       -3.895220   -0.272933    1.219776
     14          6           0       -5.179795   -0.818195    1.237641
     15          6           0       -5.858481   -1.051712    0.039671
     16          6           0       -5.242365   -0.735693   -1.173314
     17          6           0       -3.957322   -0.191497   -1.185644
     18          8           0        3.700301   -0.170880   -0.212046
     19          8           0        3.446393   -2.532064   -1.124887
     20          1           0        3.006594   -1.466346    2.242388
     21          1           0        4.463126   -2.289037    1.602775
     22          1           0        2.876696   -3.126941    1.579661
     23          1           0        1.048989   -1.982765   -0.917346
     24          1           0        0.186735    1.216365   -1.918160
     25          1           0        1.925226    0.778862   -1.763910
     26          1           0        0.316407    0.912459    1.888179
     27          1           0        2.038387    0.540488    1.555706
     28          1           0       -0.942005   -1.194752    0.745520
     29          1           0       -1.005781   -1.086448   -1.008625
     30          1           0       -1.751603    1.296462   -0.850484
     31          1           0       -1.701923    1.201871    0.903154
     32          1           0       -3.374523   -0.088192    2.155786
     33          1           0       -5.651827   -1.055224    2.186331
     34          1           0       -6.859134   -1.473002    0.050944
     35          1           0       -5.763650   -0.909225   -2.109285
     36          1           0       -3.486473    0.058579   -2.133167
 ---------------------------------------------------------------------

 SCF Done:  E(RB3LYP) =  -1619.41366630     A.U. after   11 cycles

 The electronic state is 1-A.
 Alpha  occ. eigenvalues --  -89.12840 -89.09828 -19.15813 -19.15771 -19.15500
 Alpha  occ. eigenvalues --  -19.15392 -14.37645 -10.27998 -10.23198 -10.22701
 Alpha  occ. eigenvalues --  -10.22465 -10.20418 -10.19956 -10.19526 -10.19113
 Alpha  occ. eigenvalues --  -10.19102 -10.18974 -10.18960 -10.18950  -8.15369
 Alpha  occ. eigenvalues --   -8.12904  -6.11885  -6.11815  -6.11620  -6.09351
 Alpha  occ. eigenvalues --   -6.09254  -6.09158  -1.12473  -1.10716  -1.01473
 Alpha  occ. eigenvalues --   -1.00387  -0.94825  -0.86188  -0.85517  -0.79618
 Alpha  occ. eigenvalues --   -0.77940  -0.74470  -0.74062  -0.72455  -0.68641
 Alpha  occ. eigenvalues --   -0.62673  -0.62083  -0.60568  -0.58289  -0.57058
 Alpha  occ. eigenvalues --   -0.53911  -0.53032  -0.51168  -0.50584  -0.49946
 Alpha  occ. eigenvalues --   -0.49365  -0.47961  -0.47384  -0.46160  -0.45397
 Alpha  occ. eigenvalues --   -0.44818  -0.44452  -0.43770  -0.43407  -0.42557
 Alpha  occ. eigenvalues --   -0.41898  -0.41253  -0.40259  -0.39462  -0.37496
 Alpha  occ. eigenvalues --   -0.36199  -0.35514  -0.35098  -0.33883  -0.33633
 Alpha  occ. eigenvalues --   -0.33394  -0.33204  -0.32580  -0.32088  -0.31725
 Alpha  occ. eigenvalues --   -0.30701  -0.30122  -0.27713  -0.25310  -0.24572
 Alpha virt. eigenvalues --   -0.00432  -0.00372   0.02683   0.03732   0.05043
 Alpha virt. eigenvalues --    0.05751   0.06275   0.07076   0.07528   0.09198
 Alpha virt. eigenvalues --    0.09935   0.10268   0.11008   0.11451   0.12189

 Mulliken charges:
               1
     1  C   -0.618385
     2  S    1.194715
     3  N   -0.738476
     4  C    0.210908
     5  C   -0.495676
     6  S    1.139456
     7  C   -0.512901
     8  O   -0.561719
     9  O   -0.576286
    10  C   -0.291037
    11  C   -0.381237
    12  C    0.158882
    13  C   -0.195729
    14  C   -0.149602
    15  C   -0.150758
    16  C   -0.149894
    17  C   -0.195447
    18  O   -0.585821
    19  O   -0.565896
    20  H    0.222523
    21  H    0.234037
    22  H    0.229918
    23  H    0.409094
    24  H    0.231580
    25  H    0.239564
    26  H    0.236858
    27  H    0.234005
    28  H    0.177748
    29  H    0.172609
    30  H    0.168607
    31  H    0.169399
    32  H    0.145064
    33  H    0.149802
    34  H    0.148959
    35  H    0.149856
    36  H    0.145281
 Sum of Mulliken charges =   0.00000

 Dipole moment (field-independent basis, Debye):
    X=             -4.8098    Y=             -7.3175    Z=              2.6553  Tot=              9.1504
 Quadrupole moment (field-independent basis, Debye-Ang):
   XX=           -143.1274   YY=           -150.1018   ZZ=           -111.0610
   XY=             -6.5459   XZ=             14.5463   YZ=             -9.0157

 Normal termination of Gaussian 09 at Fri Aug  7 23:32:39 2020.
