 Gaussian 09, Revision D.01,

 -----------------
 #p b3lyp/6-31G(d)
 -----------------

 ----------------
 SM38.n.9.pdb.xyz
 ----------------
 Symbolic Z-matrix:
 Charge =  0 Multiplicity = 1

 SCF Done:  E(RB3LYP) =  -1619.38584204     A.U. after   16 cycles
 Normal termination of Gaussian 09 at Sat Aug  8 00:22:01 2020.
 Gaussian 09:  AM64L-G09RevD.01 24-Apr-2013

 ----------------------------------------------------------------------
 #p b3lyp/6-31G(d) scrf=(iefpcm,read,solvent=n-Octanol) geom=allcheck g
 uess=read
 ----------------------------------------------------------------------

 Structure from the checkpoint file:  "SM38.n.9.pdb.xyz.mst.n.o.chk"
 ----------------
 SM38.n.9.pdb.xyz
 ----------------
 Charge =  0 Multiplicity = 1

                         Standard orientation:
 ---------------------------------------------------------------------
 Center     Atomic      Atomic             Coordinates (Angstroms)
 Number     Number       Type             X           Y           Z
 ---------------------------------------------------------------------
      1          6           0        4.056009   -1.334992    0.704981
      2         16           0        2.623839   -1.334502   -0.375083
      3          7           0        1.350796   -0.988371    0.670529
      4          6           0        0.599041    0.269936    0.683840
      5          6           0       -0.072086    0.718548   -0.668314
      6         16           0        0.446010    2.431607   -0.332335
      7          6           0        1.503235    1.532565    0.855701
      8          8           0        1.178197    3.090331   -1.422892
      9          8           0       -0.615754    3.176616    0.373250
     10          6           0       -0.405922    0.208657    1.853296
     11          6           0       -1.438986   -0.936800    1.866912
     12          6           0       -2.483046   -0.917871    0.768936
     13          6           0       -2.526892   -1.932563   -0.193284
     14          6           0       -3.486036   -1.921809   -1.207615
     15          6           0       -4.421705   -0.890496   -1.271707
     16          6           0       -4.396411    0.124566   -0.311646
     17          6           0       -3.438723    0.107453    0.701127
     18          8           0        2.775211   -0.224645   -1.326647
     19          8           0        2.413437   -2.705378   -0.850832
     20          1           0        4.152107   -0.356101    1.173912
     21          1           0        4.926207   -1.547015    0.082658
     22          1           0        3.921218   -2.112546    1.454817
     23          1           0        0.777814   -1.821738    0.773079
     24          1           0       -1.146346    0.582340   -0.757286
     25          1           0        0.468511    0.352991   -1.539400
     26          1           0        1.552061    1.970387    1.853000
     27          1           0        2.490276    1.418925    0.411172
     28          1           0       -0.926560    1.171553    1.868272
     29          1           0        0.181069    0.148856    2.775547
     30          1           0       -1.941136   -0.877377    2.840020
     31          1           0       -0.934805   -1.910168    1.865109
     32          1           0       -1.805834   -2.743274   -0.143819
     33          1           0       -3.500611   -2.719186   -1.943963
     34          1           0       -5.168834   -0.876881   -2.060120
     35          1           0       -5.126037    0.925747   -0.348873
     36          1           0       -3.431852    0.899847    1.444461
 ---------------------------------------------------------------------

 SCF Done:  E(RB3LYP) =  -1619.41470813     A.U. after   11 cycles

 The electronic state is 1-A.
 Alpha  occ. eigenvalues --  -89.13227 -89.09556 -19.16155 -19.16038 -19.15243
 Alpha  occ. eigenvalues --  -19.14917 -14.38547 -10.28331 -10.23291 -10.23274
 Alpha  occ. eigenvalues --  -10.22508 -10.20998 -10.20689 -10.20500 -10.19579
 Alpha  occ. eigenvalues --  -10.19571 -10.19516 -10.19431 -10.19398  -8.15757
 Alpha  occ. eigenvalues --   -8.12628  -6.12281  -6.12187  -6.12016  -6.09064
 Alpha  occ. eigenvalues --   -6.08980  -6.08897  -1.12946  -1.10475  -1.01961
 Alpha  occ. eigenvalues --   -1.00181  -0.95495  -0.86684  -0.85996  -0.80195
 Alpha  occ. eigenvalues --   -0.78456  -0.75012  -0.74609  -0.72394  -0.68846
 Alpha  occ. eigenvalues --   -0.64491  -0.62202  -0.61078  -0.58729  -0.57596
 Alpha  occ. eigenvalues --   -0.54634  -0.53372  -0.51657  -0.50652  -0.49653
 Alpha  occ. eigenvalues --   -0.49261  -0.48249  -0.47333  -0.46800  -0.45781
 Alpha  occ. eigenvalues --   -0.45104  -0.44940  -0.44257  -0.43416  -0.43186
 Alpha  occ. eigenvalues --   -0.42770  -0.42274  -0.41046  -0.39302  -0.37992
 Alpha  occ. eigenvalues --   -0.37387  -0.36484  -0.35098  -0.34443  -0.34007
 Alpha  occ. eigenvalues --   -0.33516  -0.32872  -0.32383  -0.32248  -0.31883
 Alpha  occ. eigenvalues --   -0.30587  -0.30016  -0.27798  -0.25739  -0.24912
 Alpha virt. eigenvalues --   -0.01208  -0.00737   0.02841   0.03892   0.05452
 Alpha virt. eigenvalues --    0.05550   0.05973   0.06514   0.07182   0.08855
 Alpha virt. eigenvalues --    0.09399   0.09756   0.09940   0.10914   0.12519

 Mulliken charges:
               1
     1  C   -0.616389
     2  S    1.192862
     3  N   -0.739589
     4  C    0.194742
     5  C   -0.502183
     6  S    1.108178
     7  C   -0.504667
     8  O   -0.527373
     9  O   -0.555422
    10  C   -0.294824
    11  C   -0.382799
    12  C    0.160798
    13  C   -0.199887
    14  C   -0.132406
    15  C   -0.139875
    16  C   -0.134049
    17  C   -0.188864
    18  O   -0.563440
    19  O   -0.537633
    20  H    0.215304
    21  H    0.229286
    22  H    0.223855
    23  H    0.370970
    24  H    0.233006
    25  H    0.235367
    26  H    0.220889
    27  H    0.231037
    28  H    0.189729
    29  H    0.168636
    30  H    0.177900
    31  H    0.151541
    32  H    0.133672
    33  H    0.146252
    34  H    0.144884
    35  H    0.146770
    36  H    0.143721
 Sum of Mulliken charges =   0.00000

 Dipole moment (field-independent basis, Debye):
    X=              0.3177    Y=             -4.7832    Z=              6.1809  Tot=              7.8220
 Quadrupole moment (field-independent basis, Debye-Ang):
   XX=           -109.6226   YY=           -149.2715   ZZ=           -124.6351
   XY=             -0.7724   XZ=             17.9051   YZ=              2.6858

 Normal termination of Gaussian 09 at Sat Aug  8 00:26:17 2020.
