 Gaussian 09, Revision D.01,

 -----------------
 #p b3lyp/6-31G(d)
 -----------------

 ----------------
 SM38.n.5.pdb.xyz
 ----------------
 Symbolic Z-matrix:
 Charge =  0 Multiplicity = 1

 SCF Done:  E(RB3LYP) =  -1619.37778897     A.U. after   16 cycles
 Normal termination of Gaussian 09 at Fri Aug  7 23:39:13 2020.
 Gaussian 09:  AM64L-G09RevD.01 24-Apr-2013

 ----------------------------------------------------------------------
 #p b3lyp/6-31G(d) scrf=(iefpcm,read,solvent=Water) geom=allcheck guess
 =read
 ----------------------------------------------------------------------

 Structure from the checkpoint file:  "SM38.n.5.pdb.xyz.mst.n.w.chk"
 ----------------
 SM38.n.5.pdb.xyz
 ----------------
 Charge =  0 Multiplicity = 1

                         Standard orientation:
 ---------------------------------------------------------------------
 Center     Atomic      Atomic             Coordinates (Angstroms)
 Number     Number       Type             X           Y           Z
 ---------------------------------------------------------------------
      1          6           0       -3.990044   -2.349106   -0.435285
      2         16           0       -3.176889   -0.755891   -0.333794
      3          7           0       -1.717302   -1.221128    0.385467
      4          6           0       -0.604544   -0.271453    0.615927
      5          6           0       -0.997675    1.077421    1.320489
      6         16           0       -0.378409    2.025362   -0.108848
      7          6           0       -0.058354    0.333870   -0.718438
      8          8           0       -1.444235    2.724798   -0.852691
      9          8           0        0.860034    2.772506    0.194777
     10          6           0        0.425957   -1.083359    1.427781
     11          6           0        1.782647   -0.416874    1.729647
     12          6           0        2.853297   -0.550877    0.661021
     13          6           0        3.575745    0.570915    0.232212
     14          6           0        4.598212    0.450745   -0.712055
     15          6           0        4.916659   -0.799031   -1.244376
     16          6           0        4.205658   -1.926125   -0.823432
     17          6           0        3.186718   -1.801905    0.120441
     18          8           0       -2.869344   -0.263646   -1.687510
     19          8           0       -3.982410    0.126419    0.534912
     20          1           0       -3.377039   -3.019643   -1.035908
     21          1           0       -4.951590   -2.165913   -0.916500
     22          1           0       -4.141828   -2.742855    0.569654
     23          1           0       -1.949522   -1.709297    1.255870
     24          1           0       -0.437315    1.306571    2.225537
     25          1           0       -2.067312    1.220423    1.472410
     26          1           0        1.000403    0.162654   -0.904937
     27          1           0       -0.661931    0.108109   -1.594837
     28          1           0        0.586755   -2.029526    0.905094
     29          1           0       -0.052651   -1.329341    2.381925
     30          1           0        2.158626   -0.884094    2.647586
     31          1           0        1.648396    0.641333    1.974896
     32          1           0        3.323927    1.545620    0.637397
     33          1           0        5.142087    1.334388   -1.030441
     34          1           0        5.710030   -0.895078   -1.979026
     35          1           0        4.448376   -2.903511   -1.228482
     36          1           0        2.648457   -2.689412    0.444262
 ---------------------------------------------------------------------

 SCF Done:  E(RB3LYP) =  -1619.41066598     A.U. after   11 cycles

 The electronic state is 1-A.
 Alpha  occ. eigenvalues --  -89.12681 -89.09647 -19.15612 -19.15535 -19.15420
 Alpha  occ. eigenvalues --  -19.15385 -14.37850 -10.27803 -10.22660 -10.22588
 Alpha  occ. eigenvalues --  -10.22364 -10.20383 -10.20001 -10.19733 -10.19140
 Alpha  occ. eigenvalues --  -10.19074 -10.18984 -10.18960 -10.18819  -8.15276
 Alpha  occ. eigenvalues --   -8.12738  -6.11773  -6.11690  -6.11558  -6.09188
 Alpha  occ. eigenvalues --   -6.09087  -6.08984  -1.12156  -1.10571  -1.00909
 Alpha  occ. eigenvalues --   -1.00296  -0.94954  -0.86237  -0.85417  -0.79481
 Alpha  occ. eigenvalues --   -0.78000  -0.74498  -0.74049  -0.72202  -0.68469
 Alpha  occ. eigenvalues --   -0.62783  -0.61953  -0.60415  -0.58122  -0.56897
 Alpha  occ. eigenvalues --   -0.54134  -0.52248  -0.51411  -0.50519  -0.49784
 Alpha  occ. eigenvalues --   -0.48729  -0.48145  -0.46616  -0.46293  -0.45099
 Alpha  occ. eigenvalues --   -0.44820  -0.44325  -0.44006  -0.43547  -0.42409
 Alpha  occ. eigenvalues --   -0.41678  -0.41128  -0.40542  -0.39385  -0.36986
 Alpha  occ. eigenvalues --   -0.36551  -0.35670  -0.35222  -0.34168  -0.33664
 Alpha  occ. eigenvalues --   -0.33491  -0.32723  -0.32398  -0.32083  -0.31289
 Alpha  occ. eigenvalues --   -0.30667  -0.29642  -0.27531  -0.25307  -0.24485
 Alpha virt. eigenvalues --   -0.00654  -0.00372   0.02964   0.04175   0.04765
 Alpha virt. eigenvalues --    0.05354   0.05864   0.06760   0.08386   0.09362
 Alpha virt. eigenvalues --    0.09974   0.10033   0.10874   0.11753   0.12797

 Mulliken charges:
               1
     1  C   -0.635615
     2  S    1.174075
     3  N   -0.720428
     4  C    0.185230
     5  C   -0.510901
     6  S    1.118849
     7  C   -0.503200
     8  O   -0.566306
     9  O   -0.570322
    10  C   -0.306483
    11  C   -0.371256
    12  C    0.143375
    13  C   -0.201079
    14  C   -0.146662
    15  C   -0.151180
    16  C   -0.148619
    17  C   -0.195442
    18  O   -0.570811
    19  O   -0.562659
    20  H    0.234499
    21  H    0.240123
    22  H    0.234659
    23  H    0.408878
    24  H    0.233405
    25  H    0.245709
    26  H    0.233086
    27  H    0.251813
    28  H    0.183067
    29  H    0.175430
    30  H    0.181717
    31  H    0.166734
    32  H    0.151892
    33  H    0.149790
    34  H    0.149078
    35  H    0.149918
    36  H    0.149636
 Sum of Mulliken charges =   0.00000

 Dipole moment (field-independent basis, Debye):
    X=              0.8022    Y=            -11.2843    Z=              5.2130  Tot=             12.4561
 Quadrupole moment (field-independent basis, Debye-Ang):
   XX=           -127.2697   YY=           -129.5823   ZZ=           -121.1685
   XY=             20.0447   XZ=            -10.5761   YZ=              2.9414

 Normal termination of Gaussian 09 at Fri Aug  7 23:43:33 2020.
