 Gaussian 09, Revision D.01,

 -----------------
 #p b3lyp/6-31G(d)
 -----------------

 ----------------
 SM38.n.2.pdb.xyz
 ----------------
 Symbolic Z-matrix:
 Charge =  0 Multiplicity = 1

 SCF Done:  E(RB3LYP) =  -1619.38582784     A.U. after   16 cycles
 Normal termination of Gaussian 09 at Fri Aug  7 23:29:00 2020.
 Gaussian 09:  AM64L-G09RevD.01 24-Apr-2013

 ----------------------------------------------------------------------
 #p b3lyp/6-31G(d) scrf=(iefpcm,read,solvent=Water) geom=allcheck guess
 =read
 ----------------------------------------------------------------------

 Structure from the checkpoint file:  "SM38.n.2.pdb.xyz.mst.n.w.chk"
 ----------------
 SM38.n.2.pdb.xyz
 ----------------
 Charge =  0 Multiplicity = 1

                         Standard orientation:
 ---------------------------------------------------------------------
 Center     Atomic      Atomic             Coordinates (Angstroms)
 Number     Number       Type             X           Y           Z
 ---------------------------------------------------------------------
      1          6           0        3.386531    2.833766   -0.240761
      2         16           0        1.704840    2.280289    0.026458
      3          7           0        1.729592    0.787767   -0.770632
      4          6           0        0.865130   -0.319022   -0.297170
      5          6           0        1.434327   -0.898807    1.036475
      6         16           0        2.311902   -2.195958    0.107316
      7          6           0        1.221714   -1.543528   -1.202409
      8          8           0        3.730573   -1.858525   -0.126150
      9          8           0        1.986924   -3.572170    0.529921
     10          6           0       -0.627102    0.059010   -0.284413
     11          6           0       -1.606525   -1.029098    0.190018
     12          6           0       -3.041636   -0.553871    0.114960
     13          6           0       -3.779355   -0.688132   -1.068726
     14          6           0       -5.092947   -0.224417   -1.151045
     15          6           0       -5.692044    0.383841   -0.045321
     16          6           0       -4.967155    0.521139    1.140852
     17          6           0       -3.654049    0.055945    1.217642
     18          8           0        1.496062    2.008017    1.458668
     19          8           0        0.797586    3.229684   -0.642940
     20          1           0        4.064449    2.122551    0.226157
     21          1           0        3.472667    3.818974    0.219292
     22          1           0        3.565881    2.900453   -1.313189
     23          1           0        1.606303    0.956960   -1.771487
     24          1           0        0.671189   -1.361053    1.661909
     25          1           0        2.069470   -0.238236    1.619290
     26          1           0        0.386675   -2.225093   -1.361785
     27          1           0        1.730921   -1.325219   -2.140086
     28          1           0       -0.895824    0.369850   -1.298955
     29          1           0       -0.741917    0.937948    0.356858
     30          1           0       -1.373207   -1.311627    1.222169
     31          1           0       -1.493768   -1.930140   -0.422010
     32          1           0       -3.321496   -1.164761   -1.931554
     33          1           0       -5.648660   -0.341055   -2.076062
     34          1           0       -6.714557    0.742137   -0.105726
     35          1           0       -5.426519    0.986855    2.007636
     36          1           0       -3.097094    0.160790    2.144980
 ---------------------------------------------------------------------

 SCF Done:  E(RB3LYP) =  -1619.41640687     A.U. after   11 cycles

 The electronic state is 1-A.
 Alpha  occ. eigenvalues --  -89.12574 -89.09846 -19.15720 -19.15605 -19.15479
 Alpha  occ. eigenvalues --  -19.15376 -14.37694 -10.27871 -10.23347 -10.22800
 Alpha  occ. eigenvalues --  -10.22425 -10.20168 -10.20013 -10.19767 -10.19123
 Alpha  occ. eigenvalues --  -10.19110 -10.18981 -10.18972 -10.18962  -8.15149
 Alpha  occ. eigenvalues --   -8.12914  -6.11651  -6.11583  -6.11413  -6.09362
 Alpha  occ. eigenvalues --   -6.09264  -6.09168  -1.12184  -1.10707  -1.01074
 Alpha  occ. eigenvalues --   -1.00398  -0.95031  -0.86195  -0.85581  -0.79689
 Alpha  occ. eigenvalues --   -0.77821  -0.74487  -0.73914  -0.72618  -0.68029
 Alpha  occ. eigenvalues --   -0.63799  -0.61086  -0.60583  -0.58584  -0.57260
 Alpha  occ. eigenvalues --   -0.54302  -0.52472  -0.51060  -0.50524  -0.49655
 Alpha  occ. eigenvalues --   -0.49435  -0.47989  -0.47055  -0.46339  -0.45434
 Alpha  occ. eigenvalues --   -0.44562  -0.43923  -0.43426  -0.43360  -0.42689
 Alpha  occ. eigenvalues --   -0.41891  -0.41348  -0.40782  -0.38806  -0.38125
 Alpha  occ. eigenvalues --   -0.36314  -0.35569  -0.35201  -0.34194  -0.33851
 Alpha  occ. eigenvalues --   -0.33653  -0.33078  -0.32633  -0.31981  -0.31277
 Alpha  occ. eigenvalues --   -0.30779  -0.29609  -0.27973  -0.25321  -0.24521
 Alpha virt. eigenvalues --   -0.00452  -0.00371   0.03126   0.03685   0.05022
 Alpha virt. eigenvalues --    0.05995   0.06728   0.07326   0.08698   0.09324
 Alpha virt. eigenvalues --    0.09838   0.09950   0.10258   0.10952   0.12649

 Mulliken charges:
               1
     1  C   -0.622356
     2  S    1.198870
     3  N   -0.720835
     4  C    0.152699
     5  C   -0.481050
     6  S    1.105522
     7  C   -0.495448
     8  O   -0.562119
     9  O   -0.559442
    10  C   -0.277836
    11  C   -0.385009
    12  C    0.158796
    13  C   -0.194255
    14  C   -0.149622
    15  C   -0.150648
    16  C   -0.149467
    17  C   -0.195717
    18  O   -0.589249
    19  O   -0.567086
    20  H    0.228710
    21  H    0.233731
    22  H    0.230315
    23  H    0.412738
    24  H    0.227424
    25  H    0.247833
    26  H    0.232993
    27  H    0.239385
    28  H    0.171606
    29  H    0.184212
    30  H    0.168795
    31  H    0.166311
    32  H    0.144951
    33  H    0.150040
    34  H    0.149147
    35  H    0.150028
    36  H    0.146031
 Sum of Mulliken charges =   0.00000

 Dipole moment (field-independent basis, Debye):
    X=             -1.6073    Y=              2.4579    Z=             -4.1780  Tot=              5.1069
 Quadrupole moment (field-independent basis, Debye-Ang):
   XX=           -127.0870   YY=           -150.6128   ZZ=           -115.2026
   XY=             24.5568   XZ=             -5.8997   YZ=              2.8237

 Normal termination of Gaussian 09 at Fri Aug  7 23:33:08 2020.
