 Gaussian 09, Revision D.01,

 -----------------
 #p b3lyp/6-31G(d)
 -----------------

 -----------------
 SM38.n.10.pdb.xyz
 -----------------
 Symbolic Z-matrix:
 Charge =  0 Multiplicity = 1

 SCF Done:  E(RB3LYP) =  -1619.38603376     A.U. after   16 cycles
 Normal termination of Gaussian 09 at Sat Aug  8 00:00:29 2020.
 Gaussian 09:  AM64L-G09RevD.01 24-Apr-2013

 ----------------------------------------------------------------------
 #p b3lyp/6-31G(d) scrf=(iefpcm,read,solvent=n-Octanol) geom=allcheck g
 uess=read
 ----------------------------------------------------------------------

 Structure from the checkpoint file:  "SM38.n.10.pdb.xyz.mst.n.o.chk"
 -----------------
 SM38.n.10.pdb.xyz
 -----------------
 Charge =  0 Multiplicity = 1

                         Standard orientation:
 ---------------------------------------------------------------------
 Center     Atomic      Atomic             Coordinates (Angstroms)
 Number     Number       Type             X           Y           Z
 ---------------------------------------------------------------------
      1          6           0        3.998084   -1.329156    0.723630
      2         16           0        2.581565   -1.381705   -0.374018
      3          7           0        1.289474   -1.022236    0.649488
      4          6           0        0.588771    0.265553    0.673698
      5          6           0       -0.073725    0.742869   -0.672974
      6         16           0        0.509523    2.434739   -0.334607
      7          6           0        1.539870    1.493229    0.842681
      8          8           0        1.260914    3.068410   -1.427109
      9          8           0       -0.519823    3.215783    0.379163
     10          6           0       -0.407920    0.241822    1.851781
     11          6           0       -1.462324   -0.884713    1.886161
     12          6           0       -2.497458   -0.874086    0.780100
     13          6           0       -2.566031   -1.924160   -0.141605
     14          6           0       -3.514667   -1.923922   -1.165087
     15          6           0       -4.417454   -0.866738   -1.279288
     16          6           0       -4.368307    0.183068   -0.359464
     17          6           0       -3.419906    0.177273    0.662983
     18          8           0        2.740549   -0.308266   -1.366270
     19          8           0        2.382158   -2.770058   -0.802086
     20          1           0        4.082107   -0.331731    1.154936
     21          1           0        4.878508   -1.557517    0.122031
     22          1           0        3.858651   -2.077821    1.501936
     23          1           0        0.668379   -1.829445    0.660447
     24          1           0       -1.152947    0.644796   -0.755506
     25          1           0        0.448606    0.359683   -1.548761
     26          1           0        1.609033    1.924772    1.842500
     27          1           0        2.521906    1.349392    0.394315
     28          1           0       -0.907393    1.215245    1.860022
     29          1           0        0.184369    0.178592    2.768683
     30          1           0       -1.967352   -0.796694    2.854843
     31          1           0       -0.970173   -1.863224    1.906928
     32          1           0       -1.871395   -2.754174   -0.051920
     33          1           0       -3.547318   -2.748134   -1.869639
     34          1           0       -5.156060   -0.861606   -2.075087
     35          1           0       -5.071238    1.004233   -0.434526
     36          1           0       -3.395397    0.997543    1.375096
 ---------------------------------------------------------------------

 SCF Done:  E(RB3LYP) =  -1619.41466601     A.U. after   11 cycles

 The electronic state is 1-A.
 Alpha  occ. eigenvalues --  -89.13226 -89.09642 -19.16182 -19.16083 -19.15305
 Alpha  occ. eigenvalues --  -19.14993 -14.38625 -10.28327 -10.23424 -10.23363
 Alpha  occ. eigenvalues --  -10.22572 -10.20945 -10.20624 -10.20526 -10.19608
 Alpha  occ. eigenvalues --  -10.19602 -10.19550 -10.19461 -10.19423  -8.15770
 Alpha  occ. eigenvalues --   -8.12710  -6.12290  -6.12198  -6.12030  -6.09145
 Alpha  occ. eigenvalues --   -6.09062  -6.08980  -1.12949  -1.10548  -1.01962
 Alpha  occ. eigenvalues --   -1.00256  -0.95546  -0.86699  -0.86031  -0.80203
 Alpha  occ. eigenvalues --   -0.78548  -0.75051  -0.74626  -0.72475  -0.68834
 Alpha  occ. eigenvalues --   -0.64518  -0.62172  -0.61112  -0.58765  -0.57654
 Alpha  occ. eigenvalues --   -0.54569  -0.53463  -0.51699  -0.50588  -0.49713
 Alpha  occ. eigenvalues --   -0.49308  -0.48328  -0.47345  -0.46882  -0.45836
 Alpha  occ. eigenvalues --   -0.45143  -0.44956  -0.44314  -0.43516  -0.43222
 Alpha  occ. eigenvalues --   -0.42809  -0.42315  -0.41034  -0.39263  -0.37962
 Alpha  occ. eigenvalues --   -0.37436  -0.36519  -0.35080  -0.34466  -0.34041
 Alpha  occ. eigenvalues --   -0.33515  -0.32994  -0.32446  -0.32328  -0.31899
 Alpha  occ. eigenvalues --   -0.30653  -0.30021  -0.27935  -0.25780  -0.24935
 Alpha virt. eigenvalues --   -0.01288  -0.00755   0.02749   0.03863   0.05376
 Alpha virt. eigenvalues --    0.05416   0.05924   0.06489   0.07099   0.08766
 Alpha virt. eigenvalues --    0.09267   0.09675   0.09962   0.10925   0.12449

 Mulliken charges:
               1
     1  C   -0.618276
     2  S    1.193155
     3  N   -0.736601
     4  C    0.188485
     5  C   -0.502491
     6  S    1.109889
     7  C   -0.508152
     8  O   -0.526951
     9  O   -0.554162
    10  C   -0.289477
    11  C   -0.383676
    12  C    0.162987
    13  C   -0.201668
    14  C   -0.132058
    15  C   -0.139686
    16  C   -0.133562
    17  C   -0.192118
    18  O   -0.561248
    19  O   -0.539286
    20  H    0.214656
    21  H    0.230398
    22  H    0.225380
    23  H    0.370324
    24  H    0.232987
    25  H    0.235439
    26  H    0.221957
    27  H    0.230264
    28  H    0.188805
    29  H    0.168213
    30  H    0.177946
    31  H    0.152120
    32  H    0.133431
    33  H    0.146517
    34  H    0.145226
    35  H    0.146970
    36  H    0.144262
 Sum of Mulliken charges =   0.00000

 Dipole moment (field-independent basis, Debye):
    X=              0.0569    Y=             -4.5266    Z=              6.0213  Tot=              7.5332
 Quadrupole moment (field-independent basis, Debye-Ang):
   XX=           -109.8000   YY=           -149.8065   ZZ=           -124.9937
   XY=             -0.6633   XZ=             18.1436   YZ=              2.7065

 Normal termination of Gaussian 09 at Sat Aug  8 00:04:42 2020.
