 Gaussian 16, Revision B.01,

 ----------------------------------------------------------------------
 #p b3lyp/6-31G(d) opt freq NoSymm scf=(MaxCycle=2000,NoVarAcc,NoIncFoc
 k) scrf=(iefpcm,read,solvent=water)
 ----------------------------------------------------------------------

 -------------------
 SM44_m0.n.8.pdb.xyz
 -------------------
 Symbolic Z-matrix:
 Charge =  0 Multiplicity = 1

 SCF Done:  E(RB3LYP) =  -1116.53847654     A.U. after   13 cycles
 SCF Done:  E(RB3LYP) =  -1116.53853745     A.U. after    9 cycles
 SCF Done:  E(RB3LYP) =  -1116.53857775     A.U. after    9 cycles
 SCF Done:  E(RB3LYP) =  -1116.53859763     A.U. after    9 cycles
 SCF Done:  E(RB3LYP) =  -1116.53861495     A.U. after    9 cycles
 SCF Done:  E(RB3LYP) =  -1116.53862032     A.U. after    8 cycles
 SCF Done:  E(RB3LYP) =  -1116.53861933     A.U. after    7 cycles
 SCF Done:  E(RB3LYP) =  -1116.53861786     A.U. after    7 cycles
 Optimization completed.
    -- Stationary point found.
 Normal termination of Gaussian 16 at Wed Sep 23 05:24:35 2020.

 --------------------------------------------------------------------
 #P Geom=AllCheck Guess=TCheck SCRF=Check GenChk RB3LYP/6-31G(d) Freq
 --------------------------------------------------------------------

 Structure from the checkpoint file:  "SM44_m0.n.8.pdb.xyz.mst.n.w.chk"
 -------------------
 SM44_m0.n.8.pdb.xyz
 -------------------
 Charge =  0 Multiplicity = 1

 SCF Done:  E(RB3LYP) =  -1116.53861786     A.U. after    1 cycles

  Exact polarizability: 267.713   8.491 184.808 -22.987  21.050 111.069
 Approx polarizability: 287.113   8.803 234.227 -31.338  29.660 132.127

                      1                      2                      3
                      A                      A                      A
 Frequencies --     33.4295                39.1995                53.7189
 Red. masses --      5.6002                 4.9516                 5.5891
 Frc consts  --      0.0037                 0.0045                 0.0095
 IR Inten    --      3.2032                 1.7114                 6.8472

                      4                      5                      6
                      A                      A                      A
 Frequencies --     87.7751               109.0861               125.8932
 Red. masses --      5.6739                 5.2082                 6.3168
 Frc consts  --      0.0258                 0.0365                 0.0590
 IR Inten    --     11.6240                 0.5807                 1.7095

                      7                      8                      9
                      A                      A                      A
 Frequencies --    222.3609               235.9635               258.1571
 Red. masses --      1.7713                 1.5702                 6.6805
 Frc consts  --      0.0516                 0.0515                 0.2623
 IR Inten    --      1.9960                 1.1552                 1.7430

                     10                     11                     12
                      A                      A                      A
 Frequencies --    279.6993               300.3286               341.0514
 Red. masses --      7.6219                 4.1133                 4.1366
 Frc consts  --      0.3513                 0.2186                 0.2835
 IR Inten    --      2.2285                 7.1626                 2.3536

                     13                     14                     15
                      A                      A                      A
 Frequencies --    395.2283               405.1537               418.7239
 Red. masses --      7.6794                 3.6955                 3.0370
 Frc consts  --      0.7068                 0.3574                 0.3137
 IR Inten    --      4.1610                37.1517                 0.1544

                     16                     17                     18
                      A                      A                      A
 Frequencies --    455.9195               478.0412               495.4077
 Red. masses --      5.1108                 2.9084                 4.7182
 Frc consts  --      0.6259                 0.3916                 0.6823
 IR Inten    --     17.0259                33.8327                88.7316

                     19                     20                     21
                      A                      A                      A
 Frequencies --    529.4440               562.2535               628.1647
 Red. masses --      3.6478                 5.1979                 6.3961
 Frc consts  --      0.6024                 0.9682                 1.4870
 IR Inten    --    106.6208                93.9649                 0.5271

                     22                     23                     24
                      A                      A                      A
 Frequencies --    665.4473               697.3696               705.1105
 Red. masses --      3.6518                 6.0351                 2.3447
 Frc consts  --      0.9528                 1.7293                 0.6868
 IR Inten    --      8.5165                18.8334                27.0946

                     25                     26                     27
                      A                      A                      A
 Frequencies --    718.1559               740.7639               779.3596
 Red. masses --      8.2548                 6.0183                 1.6161
 Frc consts  --      2.5084                 1.9457                 0.5783
 IR Inten    --     17.6715               137.0820                83.1822

                     28                     29                     30
                      A                      A                      A
 Frequencies --    791.4066               826.2404               848.4510
 Red. masses --      2.0141                 2.6589                 3.1024
 Frc consts  --      0.7433                 1.0695                 1.3158
 IR Inten    --     14.2487                 2.9721                89.8974

                     31                     32                     33
                      A                      A                      A
 Frequencies --    853.7410               937.5050               982.5743
 Red. masses --      1.2595                 1.3843                 1.3432
 Frc consts  --      0.5409                 0.7168                 0.7641
 IR Inten    --      0.4298                 5.6593                 0.2854

                     34                     35                     36
                      A                      A                      A
 Frequencies --   1006.0136              1012.0095              1012.9831
 Red. masses --      6.3341                 1.2699                 1.4482
 Frc consts  --      3.7769                 0.7663                 0.8755
 IR Inten    --     46.4459                 2.4581                62.5030

                     37                     38                     39
                      A                      A                      A
 Frequencies --   1015.0851              1020.4811              1046.9309
 Red. masses --      1.3497                 6.0915                 3.4496
 Frc consts  --      0.8194                 3.7375                 2.2277
 IR Inten    --     11.1768                 0.2214                 4.7973

                     40                     41                     42
                      A                      A                      A
 Frequencies --   1062.5169              1065.9034              1109.0701
 Red. masses --      2.0528                 4.1805                 1.5390
 Frc consts  --      1.3654                 2.7984                 1.1153
 IR Inten    --     53.2953                93.5100                11.9566

                     43                     44                     45
                      A                      A                      A
 Frequencies --   1124.5084              1190.2191              1199.8503
 Red. masses --     12.0231                 1.1021                 1.1809
 Frc consts  --      8.9576                 0.9198                 1.0017
 IR Inten    --    410.5079                 0.1417                 0.6803

                     46                     47                     48
                      A                      A                      A
 Frequencies --   1225.6426              1234.0578              1291.2348
 Red. masses --      2.2580                 3.1130                 5.6368
 Frc consts  --      1.9985                 2.7932                 5.5373
 IR Inten    --     12.3290                 4.9514               177.3526

                     49                     50                     51
                      A                      A                      A
 Frequencies --   1306.8494              1344.9685              1365.2615
 Red. masses --     11.9564                 2.4349                 2.6176
 Frc consts  --     12.0310                 2.5951                 2.8746
 IR Inten    --    224.7259                72.1285                 4.2482

                     52                     53                     54
                      A                      A                      A
 Frequencies --   1382.3515              1393.3280              1421.4304
 Red. masses --      3.0997                 1.1979                 2.1559
 Frc consts  --      3.4898                 1.3702                 2.5664
 IR Inten    --    119.1404                17.1608                17.3790

                     55                     56                     57
                      A                      A                      A
 Frequencies --   1479.5158              1481.6467              1484.5298
 Red. masses --      1.2779                 1.1024                 1.7343
 Frc consts  --      1.6482                 1.4258                 2.2519
 IR Inten    --     18.5434                 4.5647                18.3505

                     58                     59                     60
                      A                      A                      A
 Frequencies --   1514.7125              1549.8902              1591.5644
 Red. masses --      2.6053                 2.8106                 6.4077
 Frc consts  --      3.5218                 3.9779                 9.5631
 IR Inten    --     15.3565               132.4126                84.4696

                     61                     62                     63
                      A                      A                      A
 Frequencies --   1655.1018              1658.5098              3107.8437
 Red. masses --      6.4407                 5.7261                 1.0293
 Frc consts  --     10.3952                 9.2799                 5.8577
 IR Inten    --      7.0192                25.4311                 0.0429

                     64                     65                     66
                      A                      A                      A
 Frequencies --   3209.2907              3213.0340              3218.8286
 Red. masses --      1.1072                 1.0867                 1.1084
 Frc consts  --      6.7191                 6.6099                 6.7664
 IR Inten    --      0.2975                 0.8720                 0.1251

                     67                     68                     69
                      A                      A                      A
 Frequencies --   3225.1344              3231.4029              3241.5758
 Red. masses --      1.0895                 1.0935                 1.0959
 Frc consts  --      6.6766                 6.7278                 6.7849
 IR Inten    --     14.6900                39.3795                13.1620

                     70                     71                     72
                      A                      A                      A
 Frequencies --   3257.8353              3335.1166              3528.5699
 Red. masses --      1.0932                 1.1006                 1.0764
 Frc consts  --      6.8362                 7.2127                 7.8963
 IR Inten    --      2.2313                 8.1277               150.0224

 - Thermochemistry -
 -------------------
 Temperature   298.150 Kelvin.  Pressure   1.00000 Atm.
 Atom     1 has atomic number  8 and mass  15.99491

 Molecular mass:   238.05245 amu.
 Principal axes and moments of inertia in atomic units:
                           1         2         3
     Eigenvalues --  1141.469499088.824559443.81838
           X            0.99999  -0.00492   0.00087
           Y            0.00489   0.99965   0.02598
           Z           -0.00100  -0.02597   0.99966
 This molecule is an asymmetric top.
 Rotational symmetry number  1.
 Warning -- assumption of classical behavior for rotation
           may cause significant error
 Rotational temperatures (Kelvin)      0.07588     0.00953     0.00917
 Rotational constants (GHZ):           1.58107     0.19857     0.19110
 Zero-point vibrational energy     513293.2 (Joules/Mol)
                                  122.68002 (Kcal/Mol)
 Warning -- explicit consideration of  20 degrees of freedom as
           vibrations may cause significant error
 Vibrational temperatures:     48.10    56.40    77.29   126.29   156.95
          (Kelvin)            181.13   319.93   339.50   371.43   402.42
                              432.11   490.70   568.65   582.93   602.45
                              655.97   687.79   712.78   761.75   808.96
                              903.79   957.43  1003.36  1014.50  1033.27
                             1065.79  1121.32  1138.66  1188.78  1220.73
                             1228.34  1348.86  1413.71  1447.43  1456.06
                             1457.46  1460.48  1468.24  1506.30  1528.72
                             1533.60  1595.70  1617.92  1712.46  1726.32
                             1763.43  1775.53  1857.80  1880.26  1935.11
                             1964.31  1988.90  2004.69  2045.12  2128.69
                             2131.76  2135.91  2179.33  2229.95  2289.91
                             2381.32  2386.23  4471.49  4617.45  4622.84
                             4631.18  4640.25  4649.27  4663.90  4687.30
                             4798.49  5076.83

 Zero-point correction=                           0.195503 (Hartree/Particle)
 Thermal correction to Energy=                    0.209442
 Thermal correction to Enthalpy=                  0.210386
 Thermal correction to Gibbs Free Energy=         0.152987
 Sum of electronic and zero-point Energies=          -1116.343115
 Sum of electronic and thermal Energies=             -1116.329176
 Sum of electronic and thermal Enthalpies=           -1116.328232
 Sum of electronic and thermal Free Energies=        -1116.385630

                     E (Thermal)             CV                S
                      KCal/Mol        Cal/Mol-Kelvin    Cal/Mol-Kelvin
 Total                  131.427             53.104            120.806
 Electronic               0.000              0.000              0.000
 Translational            0.889              2.981             42.303
 Rotational               0.889              2.981             32.949
 Vibrational            129.649             47.142             45.553
 Vibration     1          0.594              1.983              5.615
 Vibration     2          0.594              1.981              5.299
 Vibration     3          0.596              1.976              4.676
 Vibration     4          0.601              1.958              3.709
 Vibration     5          0.606              1.942              3.285
 Vibration     6          0.611              1.927              3.008
 Vibration     7          0.648              1.807              1.940
 Vibration     8          0.655              1.786              1.833
 Vibration     9          0.667              1.749              1.674
 Vibration    10          0.680              1.711              1.536
 Vibration    11          0.693              1.673              1.415
 Vibration    12          0.721              1.593              1.207
 Vibration    13          0.762              1.480              0.980
 Vibration    14          0.770              1.459              0.944
 Vibration    15          0.782              1.430              0.896
 Vibration    16          0.814              1.348              0.778
 Vibration    17          0.835              1.299              0.715
 Vibration    18          0.851              1.260              0.670
 Vibration    19          0.884              1.185              0.588
 Vibration    20          0.918              1.113              0.519

                           ! Non-Optimized Parameters !
 Normal termination of Gaussian 16 at Wed Sep 23 05:30:18 2020.

 ----------------------------------------------------------------------
 #p b3lyp/6-31G(d) scrf=(iefpcm,read,solvent=water) geom=allcheck guess
 =read
 ----------------------------------------------------------------------

 Structure from the checkpoint file:  "SM44_m0.n.8.pdb.xyz.mst.n.w.chk"
 -------------------
 SM44_m0.n.8.pdb.xyz
 -------------------
 Charge =  0 Multiplicity = 1

 SCF Done:  E(RB3LYP) =  -1116.53861246     A.U. after    5 cycles
 Normal termination of Gaussian 16 at Wed Sep 23 05:30:41 2020.

 -----------------------------
 #p B3LYP/6-31G* geom=allcheck
 -----------------------------

 Structure from the checkpoint file:  "SM44_m0.n.8.pdb.xyz.mst.n.w.chk"
 -------------------
 SM44_m0.n.8.pdb.xyz
 -------------------
 Charge =  0 Multiplicity = 1

 SCF Done:  E(RB3LYP) =  -1116.50353279     A.U. after   15 cycles
 Normal termination of Gaussian 16 at Wed Sep 23 05:31:09 2020.
 Gaussian 16:  ES64L-G16RevB.01 20-Dec-2017

 ----------------------------------------------------------------------
 #p mp2/aug-cc-pVDZ scf=(MaxCycle=2000,NoVarAcc,NoIncFock) maxdisk=120G
 B geom=allcheck
 ----------------------------------------------------------------------

 Structure from the checkpoint file:  "SM44_m0.n.8.pdb.xyz.mst.n.w.chk"
 -------------------
 SM44_m0.n.8.pdb.xyz
 -------------------
 Charge =  0 Multiplicity = 1

                         Standard orientation:
 ---------------------------------------------------------------------
 Center     Atomic      Atomic             Coordinates (Angstroms)
 Number     Number       Type             X           Y           Z
 ---------------------------------------------------------------------
      1          8           0        4.716401   -0.523932   -0.433413
      2         16           0        3.467877   -0.097699    0.209307
      3          7           0        2.289071   -0.216936   -1.004928
      4          6           0        0.962758    0.171061   -0.732146
      5          7           0        0.588477    1.480578   -0.733452
      6          7           0       -0.692639    1.552739   -0.491810
      7          6           0       -0.148193   -0.608167   -0.481055
      8          7           0       -1.156436    0.286758   -0.347762
      9          6           0       -2.536763    0.042359   -0.092129
     10          6           0       -3.292205    1.018583    0.561662
     11          6           0       -4.642722    0.777938    0.806662
     12          6           0       -5.229048   -0.428128    0.415583
     13          6           0       -4.459667   -1.395903   -0.232481
     14          6           0       -3.111240   -1.163815   -0.496610
     15          6           0        3.035717   -1.290886    1.480397
     16          8           0        3.361947    1.248839    0.781412
     17          1           0        2.374484   -1.107778   -1.493948
     18          1           0       -0.281646   -1.671997   -0.384379
     19          1           0       -2.820415    1.941863    0.870848
     20          1           0       -5.233514    1.532586    1.313894
     21          1           0       -6.279048   -0.612210    0.614527
     22          1           0       -4.908281   -2.332134   -0.544637
     23          1           0       -2.518374   -1.904342   -1.019753
     24          1           0        3.059321   -2.288171    1.042251
     25          1           0        2.043172   -1.053525    1.862425
     26          1           0        3.780361   -1.200596    2.272221
 ---------------------------------------------------------------------

 SCF Done:  E(RHF) =  -1111.63187195     A.U. after   17 cycles
 E2 =    -0.2476939198D+01 EUMP2 =    -0.11141088111507D+04

 The electronic state is 1-A.
 Alpha  occ. eigenvalues --  -92.22928 -20.56060 -20.55739 -15.69426 -15.66778
 Alpha  occ. eigenvalues --  -15.63496 -15.62454 -11.32656 -11.32175 -11.31544
 Alpha  occ. eigenvalues --  -11.29795 -11.27513 -11.27197 -11.26983 -11.26785
 Alpha  occ. eigenvalues --  -11.26570  -9.19737  -6.88262  -6.88229  -6.88111
 Alpha  occ. eigenvalues --   -1.46611  -1.45802  -1.33774  -1.27812  -1.24384
 Alpha  occ. eigenvalues --   -1.17276  -1.09743  -1.05243  -1.04982  -1.04086
 Alpha  occ. eigenvalues --   -0.91195  -0.89368  -0.86106  -0.83621  -0.81313
 Alpha  occ. eigenvalues --   -0.77394  -0.73232  -0.71881  -0.69430  -0.68487
 Alpha  occ. eigenvalues --   -0.67528  -0.66871  -0.65084  -0.63959  -0.63113
 Alpha  occ. eigenvalues --   -0.61838  -0.61565  -0.60386  -0.54636  -0.54123
 Alpha  occ. eigenvalues --   -0.53965  -0.52614  -0.50944  -0.49647  -0.49166
 Alpha  occ. eigenvalues --   -0.46882  -0.46679  -0.45171  -0.44268  -0.37621
 Alpha  occ. eigenvalues --   -0.36607  -0.33877
 Alpha virt. eigenvalues --    0.01585   0.02746   0.03301   0.03926   0.04466
 Alpha virt. eigenvalues --    0.05005   0.05696   0.06192   0.06865   0.07481
 Alpha virt. eigenvalues --    0.07879   0.08469   0.09645   0.09909   0.10615

 Mulliken charges:
               1
     1  O   -1.130920
     2  S    2.590546
     3  N   -0.834172
     4  C    0.648617
     5  N   -0.582258
     6  N   -0.429941
     7  C    1.093226
     8  N   -0.643433
     9  C    0.877038
    10  C    0.432166
    11  C    0.575725
    12  C    0.584019
    13  C    0.769121
    14  C    0.074073
    15  C    0.078213
    16  O   -1.127414
    17  H   -0.062957
    18  H   -0.495179
    19  H   -0.528209
    20  H   -0.426042
    21  H   -0.443512
    22  H   -0.436826
    23  H   -0.654914
    24  H    0.022695
    25  H    0.030340
    26  H    0.020001
 Sum of Mulliken charges =  -0.00000

 Dipole moment (field-independent basis, Debye):
    X=             -6.7647    Y=             -7.4030    Z=              1.8213  Tot=             10.1922
 Quadrupole moment (field-independent basis, Debye-Ang):
   XX=           -112.5685   YY=           -100.1029   ZZ=            -99.8630
   XY=            -10.5820   XZ=              3.6492   YZ=              3.0343

 Normal termination of Gaussian 16 at Wed Sep 23 05:49:00 2020.
