 Gaussian 16, Revision B.01,

 ----------------------------------------------------------------------
 #p b3lyp/6-31G(d) opt freq NoSymm scf=(MaxCycle=2000,NoVarAcc,NoIncFoc
 k) scrf=(iefpcm,read,solvent=water)
 ----------------------------------------------------------------------

 -------------------
 SM44_m0.n.2.pdb.xyz
 -------------------
 Symbolic Z-matrix:
 Charge =  0 Multiplicity = 1

 SCF Done:  E(RB3LYP) =  -1116.53895983     A.U. after   13 cycles
 SCF Done:  E(RB3LYP) =  -1116.53899095     A.U. after    9 cycles
 SCF Done:  E(RB3LYP) =  -1116.53898639     A.U. after    8 cycles
 SCF Done:  E(RB3LYP) =  -1116.53898879     A.U. after    8 cycles
 SCF Done:  E(RB3LYP) =  -1116.53899124     A.U. after    8 cycles
 SCF Done:  E(RB3LYP) =  -1116.53898687     A.U. after    8 cycles
 SCF Done:  E(RB3LYP) =  -1116.53898392     A.U. after    7 cycles
 SCF Done:  E(RB3LYP) =  -1116.53898127     A.U. after    7 cycles
 SCF Done:  E(RB3LYP) =  -1116.53898005     A.U. after    7 cycles
 Optimization completed.
    -- Stationary point found.
 Normal termination of Gaussian 16 at Wed Sep 23 05:24:43 2020.

 --------------------------------------------------------------------
 #P Geom=AllCheck Guess=TCheck SCRF=Check GenChk RB3LYP/6-31G(d) Freq
 --------------------------------------------------------------------

 Structure from the checkpoint file:  "SM44_m0.n.2.pdb.xyz.mst.n.w.chk"
 -------------------
 SM44_m0.n.2.pdb.xyz
 -------------------
 Charge =  0 Multiplicity = 1

 SCF Done:  E(RB3LYP) =  -1116.53898005     A.U. after    1 cycles

  Exact polarizability: 276.713   4.977 190.582 -19.454  10.686  98.882
 Approx polarizability: 292.461   1.022 239.262 -25.126  14.062 122.588

                      1                      2                      3
                      A                      A                      A
 Frequencies --     27.9089                35.6993                43.3940
 Red. masses --      5.9443                 5.0885                 4.7827
 Frc consts  --      0.0027                 0.0038                 0.0053
 IR Inten    --      5.2907                 1.9032                12.2828

                      4                      5                      6
                      A                      A                      A
 Frequencies --     77.2019               100.4189               124.2129
 Red. masses --      6.0591                 5.9614                 5.0750
 Frc consts  --      0.0213                 0.0354                 0.0461
 IR Inten    --     14.4779                 3.9904                 4.1418

                      7                      8                      9
                      A                      A                      A
 Frequencies --    227.4607               230.6137               256.3445
 Red. masses --      3.9037                 1.1467                 5.9610
 Frc consts  --      0.1190                 0.0359                 0.2308
 IR Inten    --      1.9075                 0.0698                 2.2254

                     10                     11                     12
                      A                      A                      A
 Frequencies --    270.2899               312.9484               342.4991
 Red. masses --      5.3949                 5.1461                 4.5671
 Frc consts  --      0.2322                 0.2969                 0.3157
 IR Inten    --      4.3221                 1.3923                 2.1684

                     13                     14                     15
                      A                      A                      A
 Frequencies --    394.4234               395.4738               418.9702
 Red. masses --      3.0262                 5.0511                 3.0229
 Frc consts  --      0.2774                 0.4654                 0.3126
 IR Inten    --     24.9666                22.1550                 0.6796

                     16                     17                     18
                      A                      A                      A
 Frequencies --    445.6190               467.5846               495.2010
 Red. masses --      3.0208                 4.5937                 6.3665
 Frc consts  --      0.3534                 0.5917                 0.9198
 IR Inten    --     76.4615                42.1344                86.1251

                     19                     20                     21
                      A                      A                      A
 Frequencies --    524.3109               546.3265               628.5188
 Red. masses --      4.1202                 4.6039                 6.4154
 Frc consts  --      0.6673                 0.8096                 1.4932
 IR Inten    --    136.7570                38.1978                 0.3034

                     22                     23                     24
                      A                      A                      A
 Frequencies --    668.3352               696.2950               704.7681
 Red. masses --      3.6831                 6.0116                 2.4268
 Frc consts  --      0.9693                 1.7172                 0.7102
 IR Inten    --      3.1665                24.5220                32.2374

                     25                     26                     27
                      A                      A                      A
 Frequencies --    710.8589               729.1204               778.5555
 Red. masses --      6.0402                 4.5788                 1.5989
 Frc consts  --      1.7983                 1.4342                 0.5710
 IR Inten    --      5.7234                34.6356                96.8019

                     28                     29                     30
                      A                      A                      A
 Frequencies --    786.7948               814.9799               853.3719
 Red. masses --      1.7985                 3.7499                 1.2546
 Frc consts  --      0.6560                 1.4674                 0.5383
 IR Inten    --     19.5704                 2.6221                 3.3500

                     31                     32                     33
                      A                      A                      A
 Frequencies --    868.1913               937.1324               981.7097
 Red. masses --      4.1908                 1.3898                 1.3457
 Frc consts  --      1.8611                 0.7191                 0.7641
 IR Inten    --    285.5460                 6.1555                 0.2543

                     34                     35                     36
                      A                      A                      A
 Frequencies --   1007.4091              1011.6437              1018.7325
 Red. masses --      7.6958                 1.2696                 1.3502
 Frc consts  --      4.6017                 0.7655                 0.8256
 IR Inten    --     29.2503                 0.4435                 4.1303

                     37                     38                     39
                      A                      A                      A
 Frequencies --   1018.9275              1020.7547              1050.7034
 Red. masses --      1.4066                 5.8025                 2.8020
 Frc consts  --      0.8604                 3.5621                 1.8226
 IR Inten    --     52.2848                 3.3236                 1.2335

                     40                     41                     42
                      A                      A                      A
 Frequencies --   1067.5615              1070.4733              1109.5021
 Red. masses --      4.2410                 2.2322                 1.6263
 Frc consts  --      2.8477                 1.5071                 1.1795
 IR Inten    --     42.0879               104.2253                37.0718

                     43                     44                     45
                      A                      A                      A
 Frequencies --   1113.4751              1187.3235              1199.2271
 Red. masses --      7.8995                 1.0986                 1.1800
 Frc consts  --      5.7705                 0.9125                 0.9999
 IR Inten    --    289.8979                 0.0417                 0.5548

                     46                     47                     48
                      A                      A                      A
 Frequencies --   1232.6920              1235.9996              1285.2281
 Red. masses --      3.9471                 2.0087                 7.3802
 Frc consts  --      3.5338                 1.8080                 7.1826
 IR Inten    --      3.6806                16.5636               263.4719

                     49                     50                     51
                      A                      A                      A
 Frequencies --   1298.6113              1339.8679              1366.9720
 Red. masses --      9.4126                 2.3492                 2.5711
 Frc consts  --      9.3523                 2.4848                 2.8307
 IR Inten    --    218.2901                88.6404                 1.9117

                     52                     53                     54
                      A                      A                      A
 Frequencies --   1377.1625              1391.6750              1420.4940
 Red. masses --      2.3340                 1.2190                 2.8251
 Frc consts  --      2.6081                 1.3910                 3.3587
 IR Inten    --    101.6112                11.7895                67.5745

                     55                     56                     57
                      A                      A                      A
 Frequencies --   1474.3076              1484.0696              1487.8747
 Red. masses --      1.0532                 2.0101                 1.2047
 Frc consts  --      1.3487                 2.6084                 1.5713
 IR Inten    --      3.7177                22.4177                 4.7895

                     58                     59                     60
                      A                      A                      A
 Frequencies --   1514.6849              1550.1869              1606.8830
 Red. masses --      2.6020                 2.7526                 6.5708
 Frc consts  --      3.5172                 3.8973                 9.9962
 IR Inten    --     19.7925               129.4275               161.4419

                     61                     62                     63
                      A                      A                      A
 Frequencies --   1655.5276              1658.8809              3108.7504
 Red. masses --      6.4559                 5.7136                 1.0291
 Frc consts  --     10.4250                 9.2638                 5.8600
 IR Inten    --     10.2080                26.8701                 1.1532

                     64                     65                     66
                      A                      A                      A
 Frequencies --   3213.5648              3213.9612              3222.6990
 Red. masses --      1.0864                 1.1076                 1.1090
 Frc consts  --      6.6102                 6.7411                 6.7862
 IR Inten    --      0.0631                 0.4304                 0.8611

                     67                     68                     69
                      A                      A                      A
 Frequencies --   3223.5098              3232.1941              3242.9115
 Red. masses --      1.0900                 1.0943                 1.0948
 Frc consts  --      6.6734                 6.7359                 6.7837
 IR Inten    --     18.6881                42.7002                 9.8694

                     70                     71                     72
                      A                      A                      A
 Frequencies --   3255.9061              3335.3200              3551.2926
 Red. masses --      1.0934                 1.1005                 1.0765
 Frc consts  --      6.8296                 7.2130                 7.9987
 IR Inten    --      2.3769                 8.6692               172.6283

 - Thermochemistry -
 -------------------
 Temperature   298.150 Kelvin.  Pressure   1.00000 Atm.
 Atom     1 has atomic number  8 and mass  15.99491

 Molecular mass:   238.05245 amu.
 Principal axes and moments of inertia in atomic units:
                           1         2         3
     Eigenvalues --  1036.519929305.284559708.87540
           X            0.99995   0.00672  -0.00687
           Y           -0.00660   0.99982   0.01751
           Z            0.00699  -0.01747   0.99982
 This molecule is an asymmetric top.
 Rotational symmetry number  1.
 Warning -- assumption of classical behavior for rotation
           may cause significant error
 Rotational temperatures (Kelvin)      0.08356     0.00931     0.00892
 Rotational constants (GHZ):           1.74115     0.19395     0.18589
 Zero-point vibrational energy     512913.8 (Joules/Mol)
                                  122.58934 (Kcal/Mol)
 Warning -- explicit consideration of  20 degrees of freedom as
           vibrations may cause significant error
 Vibrational temperatures:     40.15    51.36    62.43   111.08   144.48
          (Kelvin)            178.71   327.27   331.80   368.82   388.89
                              450.26   492.78   567.49   569.00   602.80
                              641.15   672.75   712.48   754.37   786.04
                              904.30   961.59  1001.81  1014.00  1022.77
                             1049.04  1120.17  1132.02  1172.57  1227.81
                             1249.13  1348.32  1412.46  1449.44  1455.53
                             1465.73  1466.01  1468.64  1511.73  1535.98
                             1540.17  1596.33  1602.04  1708.29  1725.42
                             1773.57  1778.33  1849.16  1868.41  1927.77
                             1966.77  1981.43  2002.31  2043.77  2121.20
                             2135.25  2140.72  2179.29  2230.37  2311.95
                             2381.94  2386.76  4472.80  4623.60  4624.17
                             4636.75  4637.91  4650.41  4665.83  4684.52
                             4798.78  5109.52

 Zero-point correction=                           0.195359 (Hartree/Particle)
 Thermal correction to Energy=                    0.209423
 Thermal correction to Enthalpy=                  0.210367
 Thermal correction to Gibbs Free Energy=         0.152250
 Sum of electronic and zero-point Energies=          -1116.343621
 Sum of electronic and thermal Energies=             -1116.329557
 Sum of electronic and thermal Enthalpies=           -1116.328613
 Sum of electronic and thermal Free Energies=        -1116.386730

                     E (Thermal)             CV                S
                      KCal/Mol        Cal/Mol-Kelvin    Cal/Mol-Kelvin
 Total                  131.415             53.254            122.318
 Electronic               0.000              0.000              0.000
 Translational            0.889              2.981             42.303
 Rotational               0.889              2.981             32.904
 Vibrational            129.637             47.292             47.111
 Vibration     1          0.593              1.984              5.973
 Vibration     2          0.594              1.982              5.484
 Vibration     3          0.595              1.980              5.098
 Vibration     4          0.599              1.964              3.961
 Vibration     5          0.604              1.949              3.446
 Vibration     6          0.610              1.929              3.034
 Vibration     7          0.651              1.799              1.899
 Vibration     8          0.652              1.794              1.874
 Vibration     9          0.666              1.752              1.687
 Vibration    10          0.674              1.728              1.594
 Vibration    11          0.701              1.649              1.347
 Vibration    12          0.722              1.591              1.200
 Vibration    13          0.761              1.482              0.983
 Vibration    14          0.762              1.480              0.979
 Vibration    15          0.782              1.429              0.895
 Vibration    16          0.805              1.371              0.809
 Vibration    17          0.825              1.322              0.744
 Vibration    18          0.851              1.261              0.670
 Vibration    19          0.879              1.196              0.600
 Vibration    20          0.902              1.148              0.552

 Optimization completed.
    -- Stationary point found.
 Normal termination of Gaussian 16 at Wed Sep 23 05:30:16 2020.

 ----------------------------------------------------------------------
 #p b3lyp/6-31G(d) scrf=(iefpcm,read,solvent=water) geom=allcheck guess
 =read
 ----------------------------------------------------------------------

 Structure from the checkpoint file:  "SM44_m0.n.2.pdb.xyz.mst.n.w.chk"
 -------------------
 SM44_m0.n.2.pdb.xyz
 -------------------
 Charge =  0 Multiplicity = 1

 SCF Done:  E(RB3LYP) =  -1116.53897768     A.U. after    5 cycles
 Normal termination of Gaussian 16 at Wed Sep 23 05:30:38 2020.

 -----------------------------
 #p B3LYP/6-31G* geom=allcheck
 -----------------------------

 Structure from the checkpoint file:  "SM44_m0.n.2.pdb.xyz.mst.n.w.chk"
 -------------------
 SM44_m0.n.2.pdb.xyz
 -------------------
 Charge =  0 Multiplicity = 1

 SCF Done:  E(RB3LYP) =  -1116.51394685     A.U. after   15 cycles
 Normal termination of Gaussian 16 at Wed Sep 23 05:31:06 2020.
 Gaussian 16:  ES64L-G16RevB.01 20-Dec-2017

 ----------------------------------------------------------------------
 #p mp2/aug-cc-pVDZ scf=(MaxCycle=2000,NoVarAcc,NoIncFock) maxdisk=120G
 B geom=allcheck
 ----------------------------------------------------------------------

 Structure from the checkpoint file:  "SM44_m0.n.2.pdb.xyz.mst.n.w.chk"
 -------------------
 SM44_m0.n.2.pdb.xyz
 -------------------
 Charge =  0 Multiplicity = 1

                         Standard orientation:
 ---------------------------------------------------------------------
 Center     Atomic      Atomic             Coordinates (Angstroms)
 Number     Number       Type             X           Y           Z
 ---------------------------------------------------------------------
      1          8           0        2.912723    0.307340    1.613949
      2         16           0        3.461321   -0.176667    0.338067
      3          7           0        2.220548   -0.750767   -0.678852
      4          6           0        0.924352   -0.230419   -0.538635
      5          7           0        0.661597    1.084820   -0.764126
      6          7           0       -0.620376    1.292759   -0.599226
      7          6           0       -0.253011   -0.874607   -0.224607
      8          7           0       -1.189220    0.108275   -0.286810
      9          6           0       -2.594782    0.011996   -0.070668
     10          6           0       -3.243719   -1.207473   -0.275363
     11          6           0       -4.617653   -1.291308   -0.053209
     12          6           0       -5.336565   -0.166327    0.355036
     13          6           0       -4.674519    1.048170    0.547860
     14          6           0       -3.300310    1.143909    0.343308
     15          6           0        4.083586    1.227300   -0.578071
     16          8           0        4.463873   -1.251113    0.348488
     17          1           0        2.262199   -1.769206   -0.709591
     18          1           0       -0.477656   -1.894780    0.034710
     19          1           0       -2.687242   -2.072917   -0.613878
     20          1           0       -5.124520   -2.236830   -0.210446
     21          1           0       -6.405751   -0.235221    0.522056
     22          1           0       -5.225906    1.924946    0.868418
     23          1           0       -2.772276    2.074756    0.502442
     24          1           0        3.259863    1.924996   -0.724795
     25          1           0        4.470891    0.870906   -1.531546
     26          1           0        4.874389    1.677134    0.023251
 ---------------------------------------------------------------------

 SCF Done:  E(RHF) =  -1111.64084089     A.U. after   17 cycles
 E2 =    -0.2477431268D+01 EUMP2 =    -0.11141182721587D+04

 The electronic state is 1-A.
 Alpha  occ. eigenvalues --  -92.22771 -20.56194 -20.55938 -15.69376 -15.66840
 Alpha  occ. eigenvalues --  -15.63272 -15.62454 -11.32655 -11.31864 -11.30748
 Alpha  occ. eigenvalues --  -11.28391 -11.27172 -11.26862 -11.26645 -11.26457
 Alpha  occ. eigenvalues --  -11.26243  -9.19623  -6.88140  -6.88112  -6.87975
 Alpha  occ. eigenvalues --   -1.46568  -1.45741  -1.33761  -1.27890  -1.24105
 Alpha  occ. eigenvalues --   -1.16940  -1.09558  -1.04689  -1.04577  -1.03839
 Alpha  occ. eigenvalues --   -0.91116  -0.89075  -0.85839  -0.83483  -0.80717
 Alpha  occ. eigenvalues --   -0.77014  -0.72434  -0.71467  -0.69239  -0.67835
 Alpha  occ. eigenvalues --   -0.67178  -0.66610  -0.64808  -0.63810  -0.62629
 Alpha  occ. eigenvalues --   -0.61524  -0.60408  -0.59610  -0.54958  -0.53893
 Alpha  occ. eigenvalues --   -0.53728  -0.52629  -0.52267  -0.50261  -0.48703
 Alpha  occ. eigenvalues --   -0.46613  -0.46574  -0.45829  -0.44171  -0.36705
 Alpha  occ. eigenvalues --   -0.36233  -0.33315
 Alpha virt. eigenvalues --    0.02457   0.03171   0.03880   0.04421   0.04945
 Alpha virt. eigenvalues --    0.05265   0.06118   0.06337   0.06945   0.07748
 Alpha virt. eigenvalues --    0.07897   0.08768   0.09674   0.10396   0.10561

 Mulliken charges:
               1
     1  O   -1.161594
     2  S    2.657379
     3  N   -0.948074
     4  C    0.453270
     5  N   -0.598106
     6  N   -0.473240
     7  C    1.447359
     8  N   -0.707975
     9  C    0.866845
    10  C    0.105585
    11  C    0.751820
    12  C    0.573716
    13  C    0.610087
    14  C    0.370236
    15  C    0.098273
    16  O   -1.153108
    17  H   -0.042102
    18  H   -0.463576
    19  H   -0.654448
    20  H   -0.434627
    21  H   -0.442375
    22  H   -0.430104
    23  H   -0.517480
    24  H    0.031317
    25  H    0.013322
    26  H    0.047600
 Sum of Mulliken charges =  -0.00000

 Dipole moment (field-independent basis, Debye):
    X=             -4.5064    Y=             -1.3651    Z=             -2.3857  Tot=              5.2785
 Quadrupole moment (field-independent basis, Debye-Ang):
   XX=            -92.9272   YY=            -94.0929   ZZ=           -110.5438
   XY=             12.6114   XZ=            -13.4426   YZ=              3.9131

 Normal termination of Gaussian 16 at Wed Sep 23 05:48:07 2020.
