 Gaussian 16, Revision B.01,

 ----------------------------------------------------------------------
 #p b3lyp/6-31G(d) opt freq NoSymm scf=(MaxCycle=2000,NoVarAcc,NoIncFoc
 k) scrf=(iefpcm,read,solvent=water)
 ----------------------------------------------------------------------

 -------------------
 SM44_m1.a.5.pdb.xyz
 -------------------
 Symbolic Z-matrix:
 Charge = -1 Multiplicity = 1

 SCF Done:  E(RB3LYP) =  -1116.06477968     A.U. after   13 cycles
 SCF Done:  E(RB3LYP) =  -1116.06469310     A.U. after   10 cycles
 SCF Done:  E(RB3LYP) =  -1116.06465875     A.U. after    9 cycles
 SCF Done:  E(RB3LYP) =  -1116.06477567     A.U. after   10 cycles
 SCF Done:  E(RB3LYP) =  -1116.06478008     A.U. after    9 cycles
 SCF Done:  E(RB3LYP) =  -1116.06463654     A.U. after   11 cycles
 SCF Done:  E(RB3LYP) =  -1116.06461767     A.U. after    9 cycles
 SCF Done:  E(RB3LYP) =  -1116.06477353     A.U. after   10 cycles
 SCF Done:  E(RB3LYP) =  -1116.06477986     A.U. after    9 cycles
 SCF Done:  E(RB3LYP) =  -1116.06478018     A.U. after    8 cycles
 SCF Done:  E(RB3LYP) =  -1116.06477979     A.U. after    9 cycles
 SCF Done:  E(RB3LYP) =  -1116.06459978     A.U. after   11 cycles
 SCF Done:  E(RB3LYP) =  -1116.06460204     A.U. after    7 cycles
 SCF Done:  E(RB3LYP) =  -1116.06477216     A.U. after   11 cycles
 SCF Done:  E(RB3LYP) =  -1116.06477967     A.U. after    9 cycles
 SCF Done:  E(RB3LYP) =  -1116.06460206     A.U. after   11 cycles
 Optimization completed.
    -- Stationary point found.
 Normal termination of Gaussian 16 at Thu Sep 24 15:09:33 2020.

 --------------------------------------------------------------------
 #P Geom=AllCheck Guess=TCheck SCRF=Check GenChk RB3LYP/6-31G(d) Freq
 --------------------------------------------------------------------

 Structure from the checkpoint file:  "SM44_m1.a.5.pdb.xyz.mst.a.w.chk"
 -------------------
 SM44_m1.a.5.pdb.xyz
 -------------------
 Charge = -1 Multiplicity = 1

 SCF Done:  E(RB3LYP) =  -1116.06460206     A.U. after    1 cycles

  Exact polarizability: 293.055  -9.973 200.681  -4.035  20.869  98.012
 Approx polarizability: 302.706 -15.100 256.416   0.109  24.504 122.026

                      1                      2                      3
                      A                      A                      A
 Frequencies --     26.0421                29.5435                67.5681
 Red. masses --      4.3922                 5.5748                 7.5718
 Frc consts  --      0.0018                 0.0029                 0.0204
 IR Inten    --      0.0987                10.9734                 5.9790

                      4                      5                      6
                      A                      A                      A
 Frequencies --     68.7281                92.1708               150.7846
 Red. masses --      6.5162                 5.8177                 5.8768
 Frc consts  --      0.0181                 0.0291                 0.0787
 IR Inten    --      5.5526                10.0083                15.0999

                      7                      8                      9
                      A                      A                      A
 Frequencies --    228.7884               234.9159               244.1943
 Red. masses --      1.7257                 1.8472                 3.3196
 Frc consts  --      0.0532                 0.0601                 0.1166
 IR Inten    --      2.2337                 0.8580                 5.2452

                     10                     11                     12
                      A                      A                      A
 Frequencies --    298.8516               332.9342               357.5136
 Red. masses --      4.5984                 7.8334                 6.4965
 Frc consts  --      0.2420                 0.5116                 0.4892
 IR Inten    --      1.9380                 8.3662                 0.6021

                     13                     14                     15
                      A                      A                      A
 Frequencies --    370.8850               418.0935               453.6092
 Red. masses --      6.7926                 3.0527                 8.5115
 Frc consts  --      0.5505                 0.3144                 1.0319
 IR Inten    --      0.3015                 0.1031                22.2893

                     16                     17                     18
                      A                      A                      A
 Frequencies --    477.0344               491.2661               526.7805
 Red. masses --      7.9526                 6.8977                 4.3888
 Frc consts  --      1.0663                 0.9808                 0.7176
 IR Inten    --     19.5796                51.8397                47.8197

                     19                     20                     21
                      A                      A                      A
 Frequencies --    540.0131               628.3095               665.6760
 Red. masses --      5.7592                 6.4321                 4.0820
 Frc consts  --      0.9895                 1.4961                 1.0657
 IR Inten    --     94.1768                 0.1602                 4.9677

                     22                     23                     24
                      A                      A                      A
 Frequencies --    681.6062               700.2879               704.6150
 Red. masses --      6.8284                 2.0627                 2.2740
 Frc consts  --      1.8691                 0.5960                 0.6652
 IR Inten    --     34.7179                10.7088                22.2265

                     25                     26                     27
                      A                      A                      A
 Frequencies --    734.0801               747.8173               770.3403
 Red. masses --      3.7869                 4.1986                 6.3704
 Frc consts  --      1.2023                 1.3834                 2.2273
 IR Inten    --     51.0326                49.5803               144.6410

                     28                     29                     30
                      A                      A                      A
 Frequencies --    778.0603               852.6578               928.7751
 Red. masses --      1.7033                 1.2525                 1.4040
 Frc consts  --      0.6075                 0.5365                 0.7136
 IR Inten    --     52.7134                 0.2745                 6.4205

                     31                     32                     33
                      A                      A                      A
 Frequencies --    941.3218               980.1490               999.0371
 Red. masses --      9.2243                 1.3383                 1.3864
 Frc consts  --      4.8157                 0.7575                 0.8153
 IR Inten    --    321.1760                 0.3165                 6.6952

                     34                     35                     36
                      A                      A                      A
 Frequencies --   1002.0039              1005.8936              1007.7575
 Red. masses --      1.6871                 6.6526                 1.2707
 Frc consts  --      0.9980                 3.9659                 0.7603
 IR Inten    --     29.4875                22.3305                 0.5869

                     37                     38                     39
                      A                      A                      A
 Frequencies --   1017.8856              1052.1029              1055.9884
 Red. masses --      6.0226                 2.4371                 2.5134
 Frc consts  --      3.6765                 1.5894                 1.6513
 IR Inten    --      3.1274                 1.6583               204.4558

                     40                     41                     42
                      A                      A                      A
 Frequencies --   1074.8670              1085.1993              1109.0041
 Red. masses --      3.5408                 5.8623                 1.6414
 Frc consts  --      2.4103                 4.0676                 1.1894
 IR Inten    --    272.2768               203.1627                48.2710

                     43                     44                     45
                      A                      A                      A
 Frequencies --   1173.6302              1186.2689              1199.3173
 Red. masses --     11.8369                 1.1070                 1.1903
 Frc consts  --      9.6062                 0.9179                 1.0088
 IR Inten    --    432.1569                 0.5227                 0.4859

                     46                     47                     48
                      A                      A                      A
 Frequencies --   1227.6463              1254.0261              1280.2992
 Red. masses --      4.7736                 2.9761                 4.2836
 Frc consts  --      4.2388                 2.7575                 4.1370
 IR Inten    --     29.6040                44.2335               274.1121

                     49                     50                     51
                      A                      A                      A
 Frequencies --   1335.6441              1365.6191              1376.7466
 Red. masses --      3.4745                 2.7022                 3.1946
 Frc consts  --      3.6519                 2.9691                 3.5676
 IR Inten    --    102.6356                 0.2242               289.8521

                     52                     53                     54
                      A                      A                      A
 Frequencies --   1392.7492              1448.5922              1484.0119
 Red. masses --      1.2483                 4.6067                 1.0506
 Frc consts  --      1.4267                 5.6955                 1.3632
 IR Inten    --     20.9403               200.7808                 7.3750

                     55                     56                     57
                      A                      A                      A
 Frequencies --   1490.9160              1511.2970              1544.4495
 Red. masses --      1.0483                 2.4972                 2.7015
 Frc consts  --      1.3729                 3.3605                 3.7966
 IR Inten    --      5.8633                23.0515               438.0553

                     58                     59                     60
                      A                      A                      A
 Frequencies --   1576.6009              1651.2604              1658.1812
 Red. masses --      6.2578                 6.3490                 5.7201
 Frc consts  --      9.1647                10.1996                 9.2666
 IR Inten    --    460.4434                 7.4421                49.1202

                     61                     62                     63
                      A                      A                      A
 Frequencies --   3105.1436              3202.3642              3208.2507
 Red. masses --      1.0305                 1.1065                 1.0862
 Frc consts  --      5.8542                 6.6858                 6.5870
 IR Inten    --      2.8709                 5.8521                 1.0383

                     64                     65                     66
                      A                      A                      A
 Frequencies --   3209.2432              3217.4223              3227.7938
 Red. masses --      1.1076                 1.0901                 1.0947
 Frc consts  --      6.7210                 6.6489                 6.7197
 IR Inten    --      4.7511                23.2842                48.0766

                     67                     68                     69
                      A                      A                      A
 Frequencies --   3241.4042              3253.8436              3345.7049
 Red. masses --      1.0941                 1.0928                 1.0977
 Frc consts  --      6.7730                 6.8170                 7.2395
 IR Inten    --     11.0048                 2.8101                 7.8873

 - Thermochemistry -
 -------------------
 Temperature   298.150 Kelvin.  Pressure   1.00000 Atm.
 Atom     1 has atomic number  8 and mass  15.99491

 Molecular mass:   237.04462 amu.
 Principal axes and moments of inertia in atomic units:
                           1         2         3
     Eigenvalues --  1305.154078242.599679133.16943
           X            0.99777  -0.04669   0.04775
           Y            0.05217   0.99129  -0.12092
           Z           -0.04168   0.12314   0.99151
 This molecule is an asymmetric top.
 Rotational symmetry number  1.
 Warning -- assumption of classical behavior for rotation
           may cause significant error
 Rotational temperatures (Kelvin)      0.06636     0.01051     0.00948
 Rotational constants (GHZ):           1.38278     0.21895     0.19760
 Zero-point vibrational energy     479113.8 (Joules/Mol)
                                  114.51096 (Kcal/Mol)
 Warning -- explicit consideration of  19 degrees of freedom as
           vibrations may cause significant error
 Vibrational temperatures:     37.47    42.51    97.22    98.88   132.61
          (Kelvin)            216.95   329.18   337.99   351.34   429.98
                              479.02   514.38   533.62   601.54   652.64
                              686.35   706.82   757.92   776.96   904.00
                              957.76   980.68  1007.56  1013.78  1056.18
                             1075.94  1108.35  1119.46  1226.78  1336.30
                             1354.35  1410.22  1437.39  1441.66  1447.26
                             1449.94  1464.51  1513.74  1519.33  1546.49
                             1561.36  1595.61  1688.59  1706.78  1725.55
                             1766.31  1804.26  1842.07  1921.69  1964.82
                             1980.83  2003.86  2084.20  2135.16  2145.10
                             2174.42  2222.12  2268.38  2375.80  2385.75
                             4467.61  4607.49  4615.96  4617.39  4629.15
                             4644.08  4663.66  4681.56  4813.72

 Zero-point correction=                           0.182485 (Hartree/Particle)
 Thermal correction to Energy=                    0.196169
 Thermal correction to Enthalpy=                  0.197114
 Thermal correction to Gibbs Free Energy=         0.139670
 Sum of electronic and zero-point Energies=          -1115.882117
 Sum of electronic and thermal Energies=             -1115.868433
 Sum of electronic and thermal Enthalpies=           -1115.867488
 Sum of electronic and thermal Free Energies=        -1115.924932

                     E (Thermal)             CV                S
                      KCal/Mol        Cal/Mol-Kelvin    Cal/Mol-Kelvin
 Total                  123.098             51.840            120.900
 Electronic               0.000              0.000              0.000
 Translational            0.889              2.981             42.291
 Rotational               0.889              2.981             32.952
 Vibrational            121.321             45.878             45.657
 Vibration     1          0.593              1.985              6.110
 Vibration     2          0.593              1.984              5.860
 Vibration     3          0.598              1.970              4.223
 Vibration     4          0.598              1.969              4.189
 Vibration     5          0.602              1.955              3.613
 Vibration     6          0.618              1.902              2.662
 Vibration     7          0.651              1.797              1.888
 Vibration     8          0.655              1.787              1.841
 Vibration     9          0.660              1.772              1.772
 Vibration    10          0.692              1.676              1.423
 Vibration    11          0.715              1.610              1.246
 Vibration    12          0.733              1.560              1.133
 Vibration    13          0.743              1.532              1.076
 Vibration    14          0.781              1.431              0.898
 Vibration    15          0.812              1.353              0.785
 Vibration    16          0.834              1.301              0.718
 Vibration    17          0.847              1.269              0.680
 Vibration    18          0.882              1.191              0.594
 Vibration    19          0.895              1.162              0.565

 Optimization completed.
    -- Stationary point found.
 Normal termination of Gaussian 16 at Thu Sep 24 15:14:49 2020.

 ----------------------------------------------------------------------
 #p b3lyp/6-31G(d) scrf=(iefpcm,read,solvent=water) geom=allcheck guess
 =read
 ----------------------------------------------------------------------

 Structure from the checkpoint file:  "SM44_m1.a.5.pdb.xyz.mst.a.w.chk"
 -------------------
 SM44_m1.a.5.pdb.xyz
 -------------------
 Charge = -1 Multiplicity = 1

 SCF Done:  E(RB3LYP) =  -1116.06460864     A.U. after    7 cycles
 Normal termination of Gaussian 16 at Thu Sep 24 15:15:15 2020.

 -----------------------------
 #p B3LYP/6-31G* geom=allcheck
 -----------------------------

 Structure from the checkpoint file:  "SM44_m1.a.5.pdb.xyz.mst.a.w.chk"
 -------------------
 SM44_m1.a.5.pdb.xyz
 -------------------
 Charge = -1 Multiplicity = 1

 SCF Done:  E(RB3LYP) =  -1115.96469715     A.U. after   15 cycles
 Normal termination of Gaussian 16 at Thu Sep 24 15:15:42 2020.
 Gaussian 16:  ES64L-G16RevB.01 20-Dec-2017

 ----------------------------------------------------------------------
 #p mp2/aug-cc-pVDZ scf=(MaxCycle=2000,NoVarAcc,NoIncFock) maxdisk=120G
 B geom=allcheck
 ----------------------------------------------------------------------

 Structure from the checkpoint file:  "SM44_m1.a.5.pdb.xyz.mst.a.w.chk"
 -------------------
 SM44_m1.a.5.pdb.xyz
 -------------------
 Charge = -1 Multiplicity = 1

                         Standard orientation:
 ---------------------------------------------------------------------
 Center     Atomic      Atomic             Coordinates (Angstroms)
 Number     Number       Type             X           Y           Z
 ---------------------------------------------------------------------
      1          8           0       -2.661917   -1.391942   -1.058579
      2         16           0       -3.157019   -0.449914   -0.007214
      3          7           0       -2.426639    0.977511   -0.006937
      4          6           0       -1.048062    0.968695    0.057797
      5          7           0       -0.386997    2.157753    0.273624
      6          7           0        0.909595    1.949984    0.272973
      7          6           0       -0.078147   -0.019070   -0.082526
      8          7           0        1.112392    0.635859    0.060626
      9          6           0        2.427680    0.101519    0.014390
     10          6           0        2.630899   -1.262846    0.240527
     11          6           0        3.924251   -1.781142    0.185210
     12          6           0        5.010368   -0.945917   -0.081785
     13          6           0        4.795787    0.417157   -0.299925
     14          6           0        3.507888    0.947089   -0.260461
     15          6           0       -4.822946    0.029457   -0.466677
     16          8           0       -3.249108   -1.085567    1.343536
     17          1           0       -0.146374   -1.069898   -0.298014
     18          1           0        1.790996   -1.907597    0.468261
     19          1           0        4.079419   -2.840148    0.360490
     20          1           0        6.015120   -1.352900   -0.120414
     21          1           0        5.633287    1.072952   -0.512414
     22          1           0        3.327155    1.998634   -0.440893
     23          1           0       -4.807952    0.468751   -1.463672
     24          1           0       -5.203531    0.746575    0.260246
     25          1           0       -5.432389   -0.875081   -0.459118
 ---------------------------------------------------------------------

 SCF Done:  E(RHF) =  -1111.09260684     A.U. after   17 cycles
 E2 =    -0.2491804801D+01 EUMP2 =    -0.11135844116381D+04

 The electronic state is 1-A.
 Alpha  occ. eigenvalues --  -92.04115 -20.37991 -20.37587 -15.54334 -15.51722
 Alpha  occ. eigenvalues --  -15.46497 -15.37828 -11.20874 -11.16904 -11.16844
 Alpha  occ. eigenvalues --  -11.16212 -11.16128 -11.16078 -11.15821 -11.13333
 Alpha  occ. eigenvalues --  -11.13220  -9.00935  -6.69447  -6.69406  -6.69365
 Alpha  occ. eigenvalues --   -1.30833  -1.26714  -1.14222  -1.11783  -1.06013
 Alpha  occ. eigenvalues --   -1.03764  -0.94573  -0.93364  -0.92040  -0.87090
 Alpha  occ. eigenvalues --   -0.78034  -0.75968  -0.70841  -0.68602  -0.64746
 Alpha  occ. eigenvalues --   -0.61888  -0.58117  -0.55011  -0.54650  -0.52498
 Alpha  occ. eigenvalues --   -0.51554  -0.50851  -0.50274  -0.49450  -0.48514
 Alpha  occ. eigenvalues --   -0.44747  -0.44020  -0.43797  -0.42559  -0.42099
 Alpha  occ. eigenvalues --   -0.38419  -0.36144  -0.34672  -0.31557  -0.31200
 Alpha  occ. eigenvalues --   -0.29325  -0.29268  -0.26805  -0.26178  -0.25317
 Alpha  occ. eigenvalues --   -0.22810  -0.14486
 Alpha virt. eigenvalues --    0.09232   0.10355   0.11473   0.12741   0.13610
 Alpha virt. eigenvalues --    0.14643   0.14804   0.15193   0.16219   0.18192
 Alpha virt. eigenvalues --    0.18359   0.18410   0.19439   0.20143   0.20384

 Mulliken charges:
               1
     1  O   -1.298159
     2  S    2.824362
     3  N   -1.255896
     4  C    0.233867
     5  N   -0.736092
     6  N   -0.477976
     7  C    1.222135
     8  N   -0.742377
     9  C    0.756356
    10  C    0.411913
    11  C    0.550609
    12  C    0.629213
    13  C    0.564524
    14  C    0.589790
    15  C    0.156764
    16  O   -1.264541
    17  H   -0.590214
    18  H   -0.639448
    19  H   -0.457941
    20  H   -0.462332
    21  H   -0.454727
    22  H   -0.526197
    23  H    0.003193
    24  H   -0.010215
    25  H   -0.026610
 Sum of Mulliken charges =  -1.00000

 Dipole moment (field-independent basis, Debye):
    X=              8.1277    Y=             -1.6719    Z=             -1.7506  Tot=              8.4805
 Quadrupole moment (field-independent basis, Debye-Ang):
   XX=           -122.4009   YY=           -121.3151   ZZ=           -116.1520
   XY=             -8.7594   XZ=              4.7519   YZ=             -3.1505

 Normal termination of Gaussian 16 at Thu Sep 24 15:38:24 2020.
