 Gaussian 16, Revision B.01,

 ----------------------------------------------------------------------
 #p b3lyp/6-31G(d) opt freq NoSymm scf=(MaxCycle=2000,NoVarAcc,NoIncFoc
 k) scrf=(iefpcm,read,solvent=water)
 ----------------------------------------------------------------------

 -------------------
 SM44_m2.b.5.pdb.xyz
 -------------------
 Symbolic Z-matrix:
 Charge =  1 Multiplicity = 1

 SCF Done:  E(RB3LYP) =  -1116.98586747     A.U. after   13 cycles
 SCF Done:  E(RB3LYP) =  -1116.98570473     A.U. after   10 cycles
 SCF Done:  E(RB3LYP) =  -1116.98567653     A.U. after    9 cycles
 SCF Done:  E(RB3LYP) =  -1116.98586270     A.U. after   10 cycles
 SCF Done:  E(RB3LYP) =  -1116.98586862     A.U. after    9 cycles
 SCF Done:  E(RB3LYP) =  -1116.98553539     A.U. after   11 cycles
 SCF Done:  E(RB3LYP) =  -1116.98562179     A.U. after    9 cycles
 SCF Done:  E(RB3LYP) =  -1116.98586328     A.U. after   11 cycles
 SCF Done:  E(RB3LYP) =  -1116.98586862     A.U. after    9 cycles
 SCF Done:  E(RB3LYP) =  -1116.98548551     A.U. after   11 cycles
 SCF Done:  E(RB3LYP) =  -1116.98586156     A.U. after    3 cycles
 SCF Done:  E(RB3LYP) =  -1116.98586156     A.U. after    2 cycles
 SCF Done:  E(RB3LYP) =  -1116.98586156     A.U. after    4 cycles
 SCF Done:  E(RB3LYP) =  -1116.98549946     A.U. after   11 cycles
 SCF Done:  E(RB3LYP) =  -1116.98554428     A.U. after    8 cycles
 SCF Done:  E(RB3LYP) =  -1116.98552229     A.U. after    8 cycles
 Optimization completed.
    -- Stationary point found.
 Normal termination of Gaussian 16 at Thu Sep 24 15:05:53 2020.

 --------------------------------------------------------------------
 #P Geom=AllCheck Guess=TCheck SCRF=Check GenChk RB3LYP/6-31G(d) Freq
 --------------------------------------------------------------------

 Structure from the checkpoint file:  "SM44_m2.b.5.pdb.xyz.mst.b.w.chk"
 -------------------
 SM44_m2.b.5.pdb.xyz
 -------------------
 Charge =  1 Multiplicity = 1

 SCF Done:  E(RB3LYP) =  -1116.98552229     A.U. after    1 cycles

  Exact polarizability: 265.146 -19.019 186.636  24.819  24.822 111.382
 Approx polarizability: 284.664 -20.480 234.580  33.628  32.736 131.583

                      1                      2                      3
                      A                      A                      A
 Frequencies --     18.8750                35.5322                66.7094
 Red. masses --      4.0843                 5.1149                 6.7229
 Frc consts  --      0.0009                 0.0038                 0.0176
 IR Inten    --      3.2671                 5.0040                 3.5071

                      4                      5                      6
                      A                      A                      A
 Frequencies --     69.8545               104.7856               151.2853
 Red. masses --      5.0706                 4.6341                 5.6439
 Frc consts  --      0.0146                 0.0300                 0.0761
 IR Inten    --      8.3951                 2.8304                 4.6918

                      7                      8                      9
                      A                      A                      A
 Frequencies --    228.3087               234.6717               255.9481
 Red. masses --      1.1851                 3.4987                 5.8211
 Frc consts  --      0.0364                 0.1135                 0.2247
 IR Inten    --      0.6743                 6.0947                 0.9582

                     10                     11                     12
                      A                      A                      A
 Frequencies --    280.8939               321.1948               335.1154
 Red. masses --      4.9061                 5.0177                 4.2731
 Frc consts  --      0.2281                 0.3050                 0.2827
 IR Inten    --      3.6399                 5.4532                 1.3774

                     13                     14                     15
                      A                      A                      A
 Frequencies --    368.9665               393.4914               416.6839
 Red. masses --      5.4930                 6.8001                 2.9889
 Frc consts  --      0.4406                 0.6203                 0.3058
 IR Inten    --      2.3363                 6.4398                 0.0870

                     16                     17                     18
                      A                      A                      A
 Frequencies --    449.9358               471.8957               478.7946
 Red. masses --      1.4827                 4.1658                 8.3530
 Frc consts  --      0.1769                 0.5466                 1.1282
 IR Inten    --    164.8354                35.1399                71.8755

                     19                     20                     21
                      A                      A                      A
 Frequencies --    517.4124               535.0059               626.3261
 Red. masses --      5.9054                 3.9704                 5.7580
 Frc consts  --      0.9315                 0.6696                 1.3308
 IR Inten    --    102.8641                41.3933                 4.5099

                     22                     23                     24
                      A                      A                      A
 Frequencies --    637.6018               672.4504               695.8379
 Red. masses --      1.2173                 4.1792                 5.8184
 Frc consts  --      0.2916                 1.1134                 1.6599
 IR Inten    --    142.6999                 9.9660                23.5521

                     25                     26                     27
                      A                      A                      A
 Frequencies --    697.9887               705.0927               738.3150
 Red. masses --      2.2460                 4.4020                 6.3713
 Frc consts  --      0.6447                 1.2894                 2.0463
 IR Inten    --     62.4718                 6.6483               103.7593

                     28                     29                     30
                      A                      A                      A
 Frequencies --    777.7654               785.4711               800.5944
 Red. masses --      2.0409                 2.2901                 1.7747
 Frc consts  --      0.7274                 0.8325                 0.6702
 IR Inten    --     38.1943                80.4645                30.3163

                     31                     32                     33
                      A                      A                      A
 Frequencies --    849.8391               851.7269               943.5117
 Red. masses --      1.4222                 3.3311                 1.3666
 Frc consts  --      0.6052                 1.4238                 0.7168
 IR Inten    --     46.1040               164.8116                 6.0690

                     34                     35                     36
                      A                      A                      A
 Frequencies --    985.9076              1008.7533              1019.4447
 Red. masses --      1.3483                 6.5981                 1.4049
 Frc consts  --      0.7721                 3.9558                 0.8602
 IR Inten    --      0.5885                37.7457                82.1800

                     37                     38                     39
                      A                      A                      A
 Frequencies --   1019.5269              1023.2532              1027.2583
 Red. masses --      1.3138                 5.5464                 1.3435
 Frc consts  --      0.8046                 3.4216                 0.8353
 IR Inten    --     21.5217                 1.0672                 2.3949

                     40                     41                     42
                      A                      A                      A
 Frequencies --   1054.3090              1075.7843              1108.6783
 Red. masses --      2.1519                 2.1865                 3.1959
 Frc consts  --      1.4093                 1.4909                 2.3145
 IR Inten    --      4.2413                87.9581                 3.0509

                     43                     44                     45
                      A                      A                      A
 Frequencies --   1115.1170              1128.9997              1192.7903
 Red. masses --      1.6317                 9.7874                 1.1064
 Frc consts  --      1.1955                 7.3503                 0.9275
 IR Inten    --     66.2230               328.0650                 1.2859

                     46                     47                     48
                      A                      A                      A
 Frequencies --   1203.2700              1213.6504              1241.7568
 Red. masses --      1.3650                 1.6232                 2.4777
 Frc consts  --      1.1644                 1.4087                 2.2510
 IR Inten    --     28.4256                39.8941                 3.7481

                     49                     50                     51
                      A                      A                      A
 Frequencies --   1303.4546              1340.5278              1348.8437
 Red. masses --      3.8535                 5.5199                 1.8828
 Frc consts  --      3.8575                 5.8443                 2.0182
 IR Inten    --    126.3798               252.6193                 7.3516

                     52                     53                     54
                      A                      A                      A
 Frequencies --   1369.5620              1399.8725              1402.0754
 Red. masses --      3.6365                 2.4206                 1.2368
 Frc consts  --      4.0188                 2.7948                 1.4324
 IR Inten    --      5.0956                 0.8616                19.8208

                     55                     56                     57
                      A                      A                      A
 Frequencies --   1423.0611              1458.7730              1476.3683
 Red. masses --      2.1368                 3.9177                 1.0492
 Frc consts  --      2.5495                 4.9119                 1.3474
 IR Inten    --    103.8628                10.1556                 9.0625

                     58                     59                     60
                      A                      A                      A
 Frequencies --   1481.8143              1507.1332              1533.2889
 Red. masses --      1.0594                 2.2398                 2.7835
 Frc consts  --      1.3705                 2.9975                 3.8555
 IR Inten    --      6.2356                14.3022               156.9425

                     61                     62                     63
                      A                      A                      A
 Frequencies --   1544.8595              1650.3578              1655.0743
 Red. masses --      2.4587                 5.9391                 5.6830
 Frc consts  --      3.4573                 9.5308                 9.1720
 IR Inten    --     22.4678               322.5973                78.1300

                     64                     65                     66
                      A                      A                      A
 Frequencies --   1665.4963              3107.3105              3210.5120
 Red. masses --      6.0466                 1.0289                 1.1075
 Frc consts  --      9.8820                 5.8532                 6.7259
 IR Inten    --    240.7388                 0.5521                 1.3985

                     67                     68                     69
                      A                      A                      A
 Frequencies --   3219.4306              3222.3716              3228.9931
 Red. masses --      1.0869                 1.1097                 1.0902
 Frc consts  --      6.6374                 6.7889                 6.6971
 IR Inten    --      0.3101                 0.3671                13.9792

                     70                     71                     72
                      A                      A                      A
 Frequencies --   3237.2107              3246.2338              3255.3711
 Red. masses --      1.0939                 1.0953                 1.0944
 Frc consts  --      6.7543                 6.8005                 6.8331
 IR Inten    --     31.1817                 6.2796                 1.6468

                     73                     74                     75
                      A                      A                      A
 Frequencies --   3379.5693              3475.1611              3515.7614
 Red. masses --      1.1009                 1.0776                 1.0872
 Frc consts  --      7.4080                 7.6675                 7.9176
 IR Inten    --     34.4373               242.0633               601.8501

 - Thermochemistry -
 -------------------
 Temperature   298.150 Kelvin.  Pressure   1.00000 Atm.
 Atom     1 has atomic number  8 and mass  15.99491

 Molecular mass:   239.06027 amu.
 Principal axes and moments of inertia in atomic units:
                           1         2         3
     Eigenvalues --  1383.487618394.581629113.23720
           X            0.99875  -0.01940  -0.04607
           Y            0.01656   0.99798  -0.06127
           Z            0.04716   0.06043   0.99706
 This molecule is an asymmetric top.
 Rotational symmetry number  1.
 Warning -- assumption of classical behavior for rotation
           may cause significant error
 Rotational temperatures (Kelvin)      0.06261     0.01032     0.00950
 Rotational constants (GHZ):           1.30449     0.21499     0.19804
 Zero-point vibrational energy     547859.0 (Joules/Mol)
                                  130.94144 (Kcal/Mol)
 Warning -- explicit consideration of  20 degrees of freedom as
           vibrations may cause significant error
 Vibrational temperatures:     27.16    51.12    95.98   100.50   150.76
          (Kelvin)            217.67   328.49   337.64   368.25   404.14
                              462.13   482.16   530.86   566.15   599.52
                              647.36   678.95   688.88   744.44   769.75
                              901.14   917.37   967.51  1001.16  1004.25
                             1014.47  1062.27  1119.03  1130.12  1151.88
                             1222.73  1225.45  1357.50  1418.50  1451.37
                             1466.75  1466.87  1472.23  1478.00  1516.92
                             1547.81  1595.14  1604.40  1624.38  1716.16
                             1731.24  1746.17  1786.61  1875.38  1928.72
                             1940.69  1970.49  2014.10  2017.27  2047.47
                             2098.85  2124.16  2132.00  2168.43  2206.06
                             2222.71  2374.50  2381.28  2396.28  4470.73
                             4619.21  4632.04  4636.27  4645.80  4657.62
                             4670.61  4683.75  4862.45  4999.98  5058.40

 Zero-point correction=                           0.208668 (Hartree/Particle)
 Thermal correction to Energy=                    0.222828
 Thermal correction to Enthalpy=                  0.223772
 Thermal correction to Gibbs Free Energy=         0.165531
 Sum of electronic and zero-point Energies=          -1116.776854
 Sum of electronic and thermal Energies=             -1116.762694
 Sum of electronic and thermal Enthalpies=           -1116.761750
 Sum of electronic and thermal Free Energies=        -1116.819991

                     E (Thermal)             CV                S
                      KCal/Mol        Cal/Mol-Kelvin    Cal/Mol-Kelvin
 Total                  139.827             54.256            122.579
 Electronic               0.000              0.000              0.000
 Translational            0.889              2.981             42.316
 Rotational               0.889              2.981             33.026
 Vibrational            138.049             48.294             47.237
 Vibration     1          0.593              1.986              6.749
 Vibration     2          0.594              1.982              5.494
 Vibration     3          0.598              1.970              4.248
 Vibration     4          0.598              1.968              4.157
 Vibration     5          0.605              1.945              3.363
 Vibration     6          0.619              1.901              2.656
 Vibration     7          0.651              1.798              1.892
 Vibration     8          0.654              1.788              1.843
 Vibration     9          0.666              1.753              1.689
 Vibration    10          0.681              1.709              1.528
 Vibration    11          0.707              1.633              1.304
 Vibration    12          0.716              1.605              1.235
 Vibration    13          0.741              1.536              1.084
 Vibration    14          0.761              1.484              0.987
 Vibration    15          0.780              1.434              0.903
 Vibration    16          0.809              1.361              0.796
 Vibration    17          0.829              1.312              0.732
 Vibration    18          0.835              1.297              0.713
 Vibration    19          0.872              1.211              0.616
 Vibration    20          0.890              1.173              0.576

                           ! Non-Optimized Parameters !
 Normal termination of Gaussian 16 at Thu Sep 24 15:12:06 2020.

 ----------------------------------------------------------------------
 #p b3lyp/6-31G(d) scrf=(iefpcm,read,solvent=water) geom=allcheck guess
 =read
 ----------------------------------------------------------------------

 Structure from the checkpoint file:  "SM44_m2.b.5.pdb.xyz.mst.b.w.chk"
 -------------------
 SM44_m2.b.5.pdb.xyz
 -------------------
 Charge =  1 Multiplicity = 1

 SCF Done:  E(RB3LYP) =  -1116.98547310     A.U. after    7 cycles
 Normal termination of Gaussian 16 at Thu Sep 24 15:12:35 2020.

 -----------------------------
 #p B3LYP/6-31G* geom=allcheck
 -----------------------------

 Structure from the checkpoint file:  "SM44_m2.b.5.pdb.xyz.mst.b.w.chk"
 -------------------
 SM44_m2.b.5.pdb.xyz
 -------------------
 Charge =  1 Multiplicity = 1

 SCF Done:  E(RB3LYP) =  -1116.87663191     A.U. after   16 cycles
 Normal termination of Gaussian 16 at Thu Sep 24 15:13:07 2020.
 Gaussian 16:  ES64L-G16RevB.01 20-Dec-2017

 ----------------------------------------------------------------------
 #p mp2/aug-cc-pVDZ scf=(MaxCycle=2000,NoVarAcc,NoIncFock) maxdisk=120G
 B geom=allcheck
 ----------------------------------------------------------------------

 Structure from the checkpoint file:  "SM44_m2.b.5.pdb.xyz.mst.b.w.chk"
 -------------------
 SM44_m2.b.5.pdb.xyz
 -------------------
 Charge =  1 Multiplicity = 1

                         Standard orientation:
 ---------------------------------------------------------------------
 Center     Atomic      Atomic             Coordinates (Angstroms)
 Number     Number       Type             X           Y           Z
 ---------------------------------------------------------------------
      1          8           0        2.418121   -1.717025   -0.054948
      2         16           0        3.282388   -0.540224    0.058749
      3          7           0        2.384095    0.748982   -0.600236
      4          6           0        1.022480    0.853392   -0.434464
      5          7           0        0.367103    2.041974   -0.405381
      6          7           0       -0.943132    1.914168   -0.292178
      7          6           0        0.027904   -0.098902   -0.304304
      8          7           0       -1.129827    0.612357   -0.214300
      9          6           0       -2.455995    0.090351   -0.060278
     10          6           0       -2.743144   -1.178180   -0.561842
     11          6           0       -4.032231   -1.683019   -0.401703
     12          6           0       -5.011032   -0.922296    0.240672
     13          6           0       -4.702502    0.348748    0.731092
     14          6           0       -3.416704    0.864938    0.588885
     15          6           0        3.519353   -0.141353    1.788657
     16          8           0        4.568853   -0.485946   -0.631765
     17          1           0        2.906848    1.624461   -0.688656
     18          1           0        0.083866   -1.169147   -0.248505
     19          1           0       -1.984434   -1.752388   -1.079150
     20          1           0       -4.269791   -2.667448   -0.788719
     21          1           0       -6.012890   -1.319121    0.359726
     22          1           0       -5.459572    0.938221    1.235030
     23          1           0       -3.155180    1.840898    0.976890
     24          1           0        2.544469   -0.069526    2.269755
     25          1           0        4.068656    0.797126    1.854124
     26          1           0        4.100058   -0.959269    2.217357
     27          1           0        0.767531    2.979105   -0.489766
 ---------------------------------------------------------------------

 SCF Done:  E(RHF) =  -1111.99889043     A.U. after   17 cycles
 E2 =    -0.2470454345D+01 EUMP2 =    -0.11144693447720D+04

 The electronic state is 1-A.
 Alpha  occ. eigenvalues --  -92.37455 -20.70298 -20.69625 -15.89727 -15.88079
 Alpha  occ. eigenvalues --  -15.86825 -15.79758 -11.54207 -11.47145 -11.44342
 Alpha  occ. eigenvalues --  -11.42282 -11.39383 -11.39053 -11.37809 -11.37724
 Alpha  occ. eigenvalues --  -11.37622  -9.34212  -7.02739  -7.02720  -7.02554
 Alpha  occ. eigenvalues --   -1.68302  -1.60442  -1.48126  -1.47830  -1.42408
 Alpha  occ. eigenvalues --   -1.30120  -1.29235  -1.19640  -1.18335  -1.16361
 Alpha  occ. eigenvalues --   -1.09481  -1.07797  -1.00554  -0.98961  -0.97241
 Alpha  occ. eigenvalues --   -0.94707  -0.88530  -0.88046  -0.87334  -0.86892
 Alpha  occ. eigenvalues --   -0.81844  -0.81324  -0.80994  -0.78696  -0.76993
 Alpha  occ. eigenvalues --   -0.74878  -0.74594  -0.73481  -0.73360  -0.71598
 Alpha  occ. eigenvalues --   -0.71061  -0.66954  -0.65320  -0.64397  -0.63875
 Alpha  occ. eigenvalues --   -0.63273  -0.62275  -0.60823  -0.60269  -0.52449
 Alpha  occ. eigenvalues --   -0.47637  -0.47417
 Alpha virt. eigenvalues --   -0.09633  -0.08872  -0.06127  -0.05328  -0.04908
 Alpha virt. eigenvalues --   -0.03768  -0.03438  -0.02895  -0.02765  -0.02364
 Alpha virt. eigenvalues --   -0.01618  -0.01379  -0.01189  -0.00597  -0.00204

 Mulliken charges:
               1
     1  O   -1.137800
     2  S    2.676544
     3  N   -0.842839
     4  C    0.646343
     5  N   -0.386891
     6  N   -0.290646
     7  C    1.237033
     8  N   -0.613802
     9  C    0.922576
    10  C    0.259365
    11  C    0.636588
    12  C    0.632493
    13  C    0.492243
    14  C    0.618355
    15  C    0.077226
    16  O   -1.073621
    17  H   -0.087513
    18  H   -0.514884
    19  H   -0.643451
    20  H   -0.410959
    21  H   -0.416685
    22  H   -0.409823
    23  H   -0.516772
    24  H    0.035488
    25  H    0.031537
    26  H    0.078022
    27  H    0.001872
 Sum of Mulliken charges =   1.00000

 Dipole moment (field-independent basis, Debye):
    X=             -2.2755    Y=              5.7656    Z=              2.9267  Tot=              6.8546
 Quadrupole moment (field-independent basis, Debye-Ang):
   XX=            -60.3649   YY=            -79.9482   ZZ=            -94.1505
   XY=             19.4041   XZ=             11.2185   YZ=             -0.4740

 Normal termination of Gaussian 16 at Thu Sep 24 15:31:10 2020.
