 Gaussian 16, Revision B.01,

 ----------------------------------------------------------------------
 #p b3lyp/6-31G(d) opt freq NoSymm scf=(MaxCycle=2000,NoVarAcc,NoIncFoc
 k) scrf=(iefpcm,read,solvent=water)
 ----------------------------------------------------------------------

 -------------------
 SM44_m2.b.9.pdb.xyz
 -------------------
 Symbolic Z-matrix:
 Charge =  1 Multiplicity = 1

 SCF Done:  E(RB3LYP) =  -1116.98535218     A.U. after   13 cycles
 SCF Done:  E(RB3LYP) =  -1116.98529409     A.U. after   10 cycles
 SCF Done:  E(RB3LYP) =  -1116.98528225     A.U. after    9 cycles
 SCF Done:  E(RB3LYP) =  -1116.98535101     A.U. after    9 cycles
 SCF Done:  E(RB3LYP) =  -1116.98535314     A.U. after    8 cycles
 SCF Done:  E(RB3LYP) =  -1116.98527046     A.U. after   10 cycles
 SCF Done:  E(RB3LYP) =  -1116.98526577     A.U. after    8 cycles
 SCF Done:  E(RB3LYP) =  -1116.98535081     A.U. after   10 cycles
 SCF Done:  E(RB3LYP) =  -1116.98535307     A.U. after    8 cycles
 SCF Done:  E(RB3LYP) =  -1116.98526383     A.U. after   10 cycles
 SCF Done:  E(RB3LYP) =  -1116.98535304     A.U. after    8 cycles
 SCF Done:  E(RB3LYP) =  -1116.98526459     A.U. after   10 cycles
 SCF Done:  E(RB3LYP) =  -1116.98526629     A.U. after    6 cycles
 SCF Done:  E(RB3LYP) =  -1116.98535062     A.U. after   10 cycles
 SCF Done:  E(RB3LYP) =  -1116.98535304     A.U. after    8 cycles
 SCF Done:  E(RB3LYP) =  -1116.98526597     A.U. after   10 cycles
 Optimization completed.
    -- Stationary point found.
 Normal termination of Gaussian 16 at Thu Sep 24 14:57:41 2020.

 --------------------------------------------------------------------
 #P Geom=AllCheck Guess=TCheck SCRF=Check GenChk RB3LYP/6-31G(d) Freq
 --------------------------------------------------------------------

 Structure from the checkpoint file:  "SM44_m2.b.9.pdb.xyz.mst.b.w.chk"
 -------------------
 SM44_m2.b.9.pdb.xyz
 -------------------
 Charge =  1 Multiplicity = 1

 SCF Done:  E(RB3LYP) =  -1116.98526597     A.U. after    1 cycles

  Exact polarizability: 277.002   3.447 184.809   9.796 -18.788 102.519
 Approx polarizability: 291.333   3.391 228.754  16.722 -32.022 129.888

                      1                      2                      3
                      A                      A                      A
 Frequencies --     33.9274                49.2113                58.7713
 Red. masses --      4.6219                 4.4296                 6.4730
 Frc consts  --      0.0031                 0.0063                 0.0132
 IR Inten    --      4.5430                 9.7010                 8.1713

                      4                      5                      6
                      A                      A                      A
 Frequencies --     90.4401               101.8195               138.3197
 Red. masses --      4.7591                 4.7081                 6.2059
 Frc consts  --      0.0229                 0.0288                 0.0700
 IR Inten    --      2.6526                 3.0365                 9.0939

                      7                      8                      9
                      A                      A                      A
 Frequencies --    218.3623               233.3285               245.2943
 Red. masses --      1.0881                 5.6106                 4.3250
 Frc consts  --      0.0306                 0.1800                 0.1533
 IR Inten    --      0.9412                 3.5506                 6.8849

                     10                     11                     12
                      A                      A                      A
 Frequencies --    273.8353               317.4536               351.0074
 Red. masses --      7.3546                 4.1551                 4.4117
 Frc consts  --      0.3249                 0.2467                 0.3203
 IR Inten    --      0.7091                 6.2956                 3.6286

                     13                     14                     15
                      A                      A                      A
 Frequencies --    363.2899               401.0362               419.8213
 Red. masses --      4.8162                 7.1002                 3.0436
 Frc consts  --      0.3745                 0.6728                 0.3161
 IR Inten    --      4.5537                 8.9531                 0.4981

                     16                     17                     18
                      A                      A                      A
 Frequencies --    468.8614               481.4449               491.4259
 Red. masses --      5.7076                 7.5690                 2.1211
 Frc consts  --      0.7393                 1.0337                 0.3018
 IR Inten    --      9.3410                65.5939                85.3579

                     19                     20                     21
                      A                      A                      A
 Frequencies --    531.1098               550.1043               626.0101
 Red. masses --      2.9018                 4.6745                 6.3997
 Frc consts  --      0.4823                 0.8334                 1.4777
 IR Inten    --    120.0360                92.0312                 0.2637

                     22                     23                     24
                      A                      A                      A
 Frequencies --    665.8216               675.5604               699.0187
 Red. masses --      1.3070                 4.2890                 2.3955
 Frc consts  --      0.3414                 1.1533                 0.6896
 IR Inten    --    133.9322                22.2940                67.5756

                     25                     26                     27
                      A                      A                      A
 Frequencies --    701.9269               703.3824               741.4195
 Red. masses --      5.3752                 3.3688                 6.4963
 Frc consts  --      1.5604                 0.9820                 2.1040
 IR Inten    --     43.8112                 8.6253               128.9203

                     28                     29                     30
                      A                      A                      A
 Frequencies --    777.9142               786.6614               813.5130
 Red. masses --      1.8015                 2.2200                 1.8195
 Frc consts  --      0.6423                 0.8094                 0.7095
 IR Inten    --     71.4674                31.8637                24.4484

                     31                     32                     33
                      A                      A                      A
 Frequencies --    836.1044               852.6953               945.3342
 Red. masses --      4.0699                 1.2637                 1.3659
 Frc consts  --      1.6763                 0.5413                 0.7192
 IR Inten    --    157.0471                 0.1829                 5.4840

                     34                     35                     36
                      A                      A                      A
 Frequencies --    987.7204              1007.4289              1014.7762
 Red. masses --      1.3475                 7.4031                 1.3974
 Frc consts  --      0.7746                 4.4268                 0.8479
 IR Inten    --      0.7119                34.7022               102.7325

                     37                     38                     39
                      A                      A                      A
 Frequencies --   1020.4003              1022.7662              1025.6667
 Red. masses --      1.2842                 6.3500                 1.3288
 Frc consts  --      0.7878                 3.9136                 0.8236
 IR Inten    --      0.1551                 1.0973                 0.8550

                     40                     41                     42
                      A                      A                      A
 Frequencies --   1053.9316              1079.1382              1112.1966
 Red. masses --      2.1586                 2.9612                 2.1174
 Frc consts  --      1.4127                 2.0317                 1.5431
 IR Inten    --      5.4619                80.9791                13.0493

                     43                     44                     45
                      A                      A                      A
 Frequencies --   1112.7248              1126.7214              1190.4573
 Red. masses --      1.8652                10.3390                 1.0884
 Frc consts  --      1.3606                 7.7332                 0.9088
 IR Inten    --     56.6969               339.1175                 0.0787

                     46                     47                     48
                      A                      A                      A
 Frequencies --   1204.9406              1223.1858              1248.2563
 Red. masses --      1.1454                 2.0523                 2.6860
 Frc consts  --      0.9798                 1.8092                 2.4658
 IR Inten    --      2.4695                97.4898                 8.6897

                     49                     50                     51
                      A                      A                      A
 Frequencies --   1310.0305              1345.5299              1354.9016
 Red. masses --      6.6090                 2.5196                 2.9271
 Frc consts  --      6.6827                 2.6876                 3.1659
 IR Inten    --    210.3055                29.7908               125.8368

                     52                     53                     54
                      A                      A                      A
 Frequencies --   1368.0966              1395.3689              1400.2141
 Red. masses --      3.3983                 1.6139                 1.4506
 Frc consts  --      3.7475                 1.8514                 1.6757
 IR Inten    --      2.1952                16.7025                53.9152

                     55                     56                     57
                      A                      A                      A
 Frequencies --   1424.0619              1470.4409              1475.9177
 Red. masses --      2.9712                 2.7318                 1.0513
 Frc consts  --      3.5501                 3.4801                 1.3492
 IR Inten    --     89.0528                11.3694                 7.8977

                     58                     59                     60
                      A                      A                      A
 Frequencies --   1481.0901              1503.8842              1519.7732
 Red. masses --      1.0696                 2.1305                 2.6956
 Frc consts  --      1.3824                 2.8389                 3.6682
 IR Inten    --      6.7206                24.4980                14.3781

                     61                     62                     63
                      A                      A                      A
 Frequencies --   1541.9540              1649.6162              1654.4551
 Red. masses --      2.4278                 5.3929                 5.6818
 Frc consts  --      3.4010                 8.6464                 9.1632
 IR Inten    --     35.6159               245.4293                22.9055

                     64                     65                     66
                      A                      A                      A
 Frequencies --   1664.8940              3108.8754              3212.9332
 Red. masses --      5.4224                 1.0289                 1.1074
 Frc consts  --      8.8556                 5.8591                 6.7354
 IR Inten    --    264.9760                 0.4360                 1.4539

                     67                     68                     69
                      A                      A                      A
 Frequencies --   3218.2665              3222.7127              3231.0502
 Red. masses --      1.0875                 1.1099                 1.0897
 Frc consts  --      6.6361                 6.7915                 6.7025
 IR Inten    --      1.6732                 0.3468                11.7237

                     70                     71                     72
                      A                      A                      A
 Frequencies --   3235.7382              3246.5628              3254.4659
 Red. masses --      1.0933                 1.0960                 1.0944
 Frc consts  --      6.7441                 6.8065                 6.8295
 IR Inten    --     28.2238                 9.3816                 1.6561

                     73                     74                     75
                      A                      A                      A
 Frequencies --   3361.5288              3517.2963              3552.3538
 Red. masses --      1.1015                 1.0775                 1.0859
 Frc consts  --      7.3333                 7.8537                 8.0737
 IR Inten    --     27.1373               254.3890               519.1037

 - Thermochemistry -
 -------------------
 Temperature   298.150 Kelvin.  Pressure   1.00000 Atm.
 Atom     1 has atomic number  8 and mass  15.99491

 Molecular mass:   239.06027 amu.
 Principal axes and moments of inertia in atomic units:
                           1         2         3
     Eigenvalues --  1025.938079409.541609904.08861
           X            0.99994  -0.00782  -0.00717
           Y            0.00871   0.99088   0.13446
           Z            0.00605  -0.13451   0.99089
 This molecule is an asymmetric top.
 Rotational symmetry number  1.
 Warning -- assumption of classical behavior for rotation
           may cause significant error
 Rotational temperatures (Kelvin)      0.08442     0.00920     0.00875
 Rotational constants (GHZ):           1.75911     0.19180     0.18222
 Zero-point vibrational energy     549065.3 (Joules/Mol)
                                  131.22976 (Kcal/Mol)
 Warning -- explicit consideration of  20 degrees of freedom as
           vibrations may cause significant error
 Vibrational temperatures:     48.81    70.80    84.56   130.12   146.50
          (Kelvin)            199.01   314.17   335.71   352.92   393.99
                              456.74   505.02   522.69   577.00   604.03
                              674.59   692.69   707.05   764.15   791.48
                              900.69   957.97   971.98  1005.73  1009.92
                             1012.01  1066.74  1119.25  1131.83  1170.46
                             1202.97  1226.84  1360.13  1421.11  1449.47
                             1460.04  1468.13  1471.53  1475.71  1516.37
                             1552.64  1600.20  1600.96  1621.10  1712.80
                             1733.64  1759.89  1795.96  1884.84  1935.92
                             1949.40  1968.39  2007.62  2014.60  2048.91
                             2115.64  2123.52  2130.96  2163.75  2186.61
                             2218.53  2373.43  2380.39  2395.41  4472.98
                             4622.69  4630.37  4636.76  4648.76  4655.51
                             4671.08  4682.45  4836.49  5060.60  5111.04

 Zero-point correction=                           0.209128 (Hartree/Particle)
 Thermal correction to Energy=                    0.223181
 Thermal correction to Enthalpy=                  0.224125
 Thermal correction to Gibbs Free Energy=         0.166851
 Sum of electronic and zero-point Energies=          -1116.776138
 Sum of electronic and thermal Energies=             -1116.762085
 Sum of electronic and thermal Enthalpies=           -1116.761141
 Sum of electronic and thermal Free Energies=        -1116.818415

                     E (Thermal)             CV                S
                      KCal/Mol        Cal/Mol-Kelvin    Cal/Mol-Kelvin
 Total                  140.048             54.019            120.542
 Electronic               0.000              0.000              0.000
 Translational            0.889              2.981             42.316
 Rotational               0.889              2.981             32.925
 Vibrational            138.271             48.058             45.301
 Vibration     1          0.594              1.983              5.585
 Vibration     2          0.595              1.978              4.849
 Vibration     3          0.596              1.974              4.498
 Vibration     4          0.602              1.956              3.651
 Vibration     5          0.604              1.948              3.419
 Vibration     6          0.614              1.915              2.827
 Vibration     7          0.646              1.813              1.973
 Vibration     8          0.654              1.790              1.853
 Vibration     9          0.660              1.771              1.764
 Vibration    10          0.676              1.722              1.572
 Vibration    11          0.704              1.640              1.323
 Vibration    12          0.728              1.573              1.162
 Vibration    13          0.737              1.548              1.108
 Vibration    14          0.767              1.468              0.959
 Vibration    15          0.782              1.427              0.893
 Vibration    16          0.826              1.319              0.741
 Vibration    17          0.838              1.291              0.706
 Vibration    18          0.847              1.269              0.680
 Vibration    19          0.886              1.181              0.585
 Vibration    20          0.905              1.139              0.544

 Optimization completed.
    -- Stationary point found.
 Normal termination of Gaussian 16 at Thu Sep 24 15:04:05 2020.

 ----------------------------------------------------------------------
 #p b3lyp/6-31G(d) scrf=(iefpcm,read,solvent=water) geom=allcheck guess
 =read
 ----------------------------------------------------------------------

 Structure from the checkpoint file:  "SM44_m2.b.9.pdb.xyz.mst.b.w.chk"
 -------------------
 SM44_m2.b.9.pdb.xyz
 -------------------
 Charge =  1 Multiplicity = 1

 SCF Done:  E(RB3LYP) =  -1116.98507911     A.U. after    7 cycles
 Normal termination of Gaussian 16 at Thu Sep 24 15:04:36 2020.

 -----------------------------
 #p B3LYP/6-31G* geom=allcheck
 -----------------------------

 Structure from the checkpoint file:  "SM44_m2.b.9.pdb.xyz.mst.b.w.chk"
 -------------------
 SM44_m2.b.9.pdb.xyz
 -------------------
 Charge =  1 Multiplicity = 1

 SCF Done:  E(RB3LYP) =  -1116.88141456     A.U. after   16 cycles
 Normal termination of Gaussian 16 at Thu Sep 24 15:05:10 2020.
 Gaussian 16:  ES64L-G16RevB.01 20-Dec-2017

 ----------------------------------------------------------------------
 #p mp2/aug-cc-pVDZ scf=(MaxCycle=2000,NoVarAcc,NoIncFock) maxdisk=120G
 B geom=allcheck
 ----------------------------------------------------------------------

 Structure from the checkpoint file:  "SM44_m2.b.9.pdb.xyz.mst.b.w.chk"
 -------------------
 SM44_m2.b.9.pdb.xyz
 -------------------
 Charge =  1 Multiplicity = 1

                         Standard orientation:
 ---------------------------------------------------------------------
 Center     Atomic      Atomic             Coordinates (Angstroms)
 Number     Number       Type             X           Y           Z
 ---------------------------------------------------------------------
      1          8           0       -4.709403    0.149679   -0.839879
      2         16           0       -3.556410    0.067217    0.054808
      3          7           0       -2.196036    0.145025   -0.981941
      4          6           0       -0.922084   -0.143894   -0.532438
      5          7           0       -0.582639   -1.289041    0.119964
      6          7           0        0.702739   -1.365665    0.397682
      7          6           0        0.271073    0.532368   -0.693964
      8          7           0        1.213828   -0.264962   -0.120802
      9          6           0        2.626175   -0.025010   -0.030719
     10          6           0        3.498524   -1.112850   -0.067580
     11          6           0        4.867392   -0.871862    0.021098
     12          6           0        5.347678    0.434966    0.133809
     13          6           0        4.456813    1.509101    0.164697
     14          6           0        3.083395    1.286951    0.087709
     15          6           0       -3.490651    1.537907    1.079198
     16          8           0       -3.337747   -1.116874    0.891011
     17          1           0       -2.245122    0.922857   -1.644520
     18          1           0        0.497178    1.463133   -1.181696
     19          1           0        3.111265   -2.118303   -0.173153
     20          1           0        5.556985   -1.707579   -0.008923
     21          1           0        6.414854    0.615753    0.197269
     22          1           0        4.826063    2.523542    0.259066
     23          1           0        2.386314    2.114568    0.137207
     24          1           0       -3.539795    2.413203    0.432585
     25          1           0       -2.568172    1.521096    1.657740
     26          1           0       -4.358440    1.496937    1.738805
     27          1           0       -1.196506   -2.046672    0.424457
 ---------------------------------------------------------------------

 SCF Done:  E(RHF) =  -1112.00438071     A.U. after   17 cycles
 E2 =    -0.2469782347D+01 EUMP2 =    -0.11144741630600D+04

 The electronic state is 1-A.
 Alpha  occ. eigenvalues --  -92.37498 -20.70735 -20.69753 -15.89651 -15.87612
 Alpha  occ. eigenvalues --  -15.87422 -15.79555 -11.54007 -11.48271 -11.44728
 Alpha  occ. eigenvalues --  -11.42459 -11.39851 -11.39318 -11.38203 -11.38045
 Alpha  occ. eigenvalues --  -11.37930  -9.34276  -7.02798  -7.02779  -7.02618
 Alpha  occ. eigenvalues --   -1.68369  -1.60548  -1.48383  -1.47282  -1.42481
 Alpha  occ. eigenvalues --   -1.30407  -1.29339  -1.19683  -1.18413  -1.16720
 Alpha  occ. eigenvalues --   -1.09501  -1.07507  -1.02498  -0.98024  -0.96514
 Alpha  occ. eigenvalues --   -0.94248  -0.89282  -0.88382  -0.87467  -0.86737
 Alpha  occ. eigenvalues --   -0.82440  -0.81777  -0.81547  -0.78947  -0.77241
 Alpha  occ. eigenvalues --   -0.75176  -0.74537  -0.73673  -0.73660  -0.71854
 Alpha  occ. eigenvalues --   -0.70430  -0.66901  -0.65648  -0.64488  -0.64280
 Alpha  occ. eigenvalues --   -0.63515  -0.62459  -0.61006  -0.60527  -0.53421
 Alpha  occ. eigenvalues --   -0.48030  -0.47768
 Alpha virt. eigenvalues --   -0.09575  -0.08133  -0.05933  -0.05776  -0.05027
 Alpha virt. eigenvalues --   -0.03779  -0.03448  -0.03269  -0.02946  -0.02465
 Alpha virt. eigenvalues --   -0.02241  -0.01763  -0.01169  -0.00725  -0.00584

 Mulliken charges:
               1
     1  O   -1.067189
     2  S    2.628909
     3  N   -0.764463
     4  C    0.379296
     5  N   -0.367369
     6  N   -0.326448
     7  C    1.544090
     8  N   -0.609724
     9  C    0.975318
    10  C    0.339501
    11  C    0.591834
    12  C    0.548357
    13  C    0.733086
    14  C    0.165905
    15  C    0.076425
    16  O   -1.139406
    17  H   -0.025340
    18  H   -0.466098
    19  H   -0.519994
    20  H   -0.406302
    21  H   -0.415204
    22  H   -0.417216
    23  H   -0.631232
    24  H    0.037111
    25  H    0.032200
    26  H    0.057026
    27  H    0.046928
 Sum of Mulliken charges =   1.00000

 Dipole moment (field-independent basis, Debye):
    X=              4.7539    Y=              4.0981    Z=             -0.0338  Tot=              6.2766
 Quadrupole moment (field-independent basis, Debye-Ang):
   XX=            -64.7320   YY=            -79.8422   ZZ=            -98.7218
   XY=            -11.4115   XZ=             -7.0019   YZ=              1.2291

 Normal termination of Gaussian 16 at Thu Sep 24 15:24:18 2020.
