 Gaussian 16, Revision B.01,

 ----------------------------------------------------------------------
 #p b3lyp/6-31G(d) opt freq NoSymm scf=(MaxCycle=2000,NoVarAcc,NoIncFoc
 k) scrf=(iefpcm,read,solvent=water)
 ----------------------------------------------------------------------

 -------------------
 SM44_m2.b.7.pdb.xyz
 -------------------
 Symbolic Z-matrix:
 Charge =  1 Multiplicity = 1

 SCF Done:  E(RB3LYP) =  -1116.98412625     A.U. after   13 cycles
 SCF Done:  E(RB3LYP) =  -1116.98406796     A.U. after   10 cycles
 SCF Done:  E(RB3LYP) =  -1116.98404732     A.U. after    9 cycles
 SCF Done:  E(RB3LYP) =  -1116.98412358     A.U. after   10 cycles
 SCF Done:  E(RB3LYP) =  -1116.98412654     A.U. after    8 cycles
 SCF Done:  E(RB3LYP) =  -1116.98402168     A.U. after   10 cycles
 SCF Done:  E(RB3LYP) =  -1116.98400554     A.U. after    9 cycles
 SCF Done:  E(RB3LYP) =  -1116.98412391     A.U. after   10 cycles
 SCF Done:  E(RB3LYP) =  -1116.98412649     A.U. after    8 cycles
 SCF Done:  E(RB3LYP) =  -1116.98401520     A.U. after   10 cycles
 SCF Done:  E(RB3LYP) =  -1116.98412056     A.U. after    3 cycles
 SCF Done:  E(RB3LYP) =  -1116.98397618     A.U. after   11 cycles
 SCF Done:  E(RB3LYP) =  -1116.98404886     A.U. after   11 cycles
 SCF Done:  E(RB3LYP) =  -1116.98404791     A.U. after    8 cycles
 SCF Done:  E(RB3LYP) =  -1116.98387277     A.U. after   10 cycles
 SCF Done:  E(RB3LYP) =  -1116.98404681     A.U. after   10 cycles
 Optimization completed.
    -- Stationary point found.
 Normal termination of Gaussian 16 at Thu Sep 24 15:29:22 2020.

 --------------------------------------------------------------------
 #P Geom=AllCheck Guess=TCheck SCRF=Check GenChk RB3LYP/6-31G(d) Freq
 --------------------------------------------------------------------

 Structure from the checkpoint file:  "SM44_m2.b.7.pdb.xyz.mst.b.w.chk"
 -------------------
 SM44_m2.b.7.pdb.xyz
 -------------------
 Charge =  1 Multiplicity = 1

 SCF Done:  E(RB3LYP) =  -1116.98404681     A.U. after    1 cycles

  Exact polarizability: 276.853   7.241 184.140 -16.244  19.632 102.542
 Approx polarizability: 286.912  -0.639 237.227 -18.211  25.127 124.449

 ******    1 imaginary frequencies (negative Signs) ******

                      1                      2                      3
                      A                      A                      A
 Frequencies --    -12.9378                30.6936                46.1785
 Red. masses --      5.3351                 5.6929                 4.3966
 Frc consts  --      0.0005                 0.0032                 0.0055
 IR Inten    --      7.9246                 3.9970                 2.3685

                      4                      5                      6
                      A                      A                      A
 Frequencies --     78.9280                94.2820               134.2374
 Red. masses --      4.7063                 4.9787                 6.3654
 Frc consts  --      0.0173                 0.0261                 0.0676
 IR Inten    --      5.3439                 1.8018                 1.5395

                      7                      8                      9
                      A                      A                      A
 Frequencies --    219.9925               239.9754               257.9536
 Red. masses --      2.9310                 1.2043                 5.6475
 Frc consts  --      0.0836                 0.0409                 0.2214
 IR Inten    --      1.7478                 1.4812                 1.0820

                     10                     11                     12
                      A                      A                      A
 Frequencies --    268.7817               298.0843               339.8036
 Red. masses --      4.4614                 4.7303                 4.1166
 Frc consts  --      0.1899                 0.2476                 0.2801
 IR Inten    --     18.0340                 5.3395                 0.6787

                     13                     14                     15
                      A                      A                      A
 Frequencies --    372.2072               385.2352               419.2224
 Red. masses --      2.1518                 6.4146                 3.0195
 Frc consts  --      0.1756                 0.5609                 0.3127
 IR Inten    --     63.5116                13.8464                 2.0342

                     16                     17                     18
                      A                      A                      A
 Frequencies --    426.2063               458.5491               485.2192
 Red. masses --      4.3158                 4.4846                 7.7518
 Frc consts  --      0.4619                 0.5556                 1.0753
 IR Inten    --     35.6678                42.3125               131.3464

                     19                     20                     21
                      A                      A                      A
 Frequencies --    516.6812               544.9055               603.8211
 Red. masses --      5.6563                 3.9370                 1.1971
 Frc consts  --      0.8897                 0.6887                 0.2572
 IR Inten    --    134.7376                 9.1075               156.0346

                     22                     23                     24
                      A                      A                      A
 Frequencies --    626.8009               664.2663               699.2423
 Red. masses --      6.2766                 4.1183                 3.1127
 Frc consts  --      1.4529                 1.0707                 0.8967
 IR Inten    --      0.6148                 2.3333                24.3372

                     25                     26                     27
                      A                      A                      A
 Frequencies --    701.8670               704.5114               741.3045
 Red. masses --      4.3720                 3.9061                 5.0646
 Frc consts  --      1.2689                 1.1423                 1.6398
 IR Inten    --     51.8792                 0.9874                53.6460

                     28                     29                     30
                      A                      A                      A
 Frequencies --    780.9275               785.1355               816.7026
 Red. masses --      1.5982                 2.4512                 1.9913
 Frc consts  --      0.5743                 0.8903                 0.7826
 IR Inten    --     82.0095                74.8038                17.7536

                     31                     32                     33
                      A                      A                      A
 Frequencies --    843.7481               853.0365               946.2094
 Red. masses --      4.6017                 1.2753                 1.3641
 Frc consts  --      1.9302                 0.5468                 0.7196
 IR Inten    --    318.3387                 2.9471                 6.1782

                     34                     35                     36
                      A                      A                      A
 Frequencies --    986.6722              1007.8660              1015.7554
 Red. masses --      1.3475                 8.0602                 1.3676
 Frc consts  --      0.7729                 4.8239                 0.8314
 IR Inten    --      0.4391                21.4257                54.7905

                     37                     38                     39
                      A                      A                      A
 Frequencies --   1019.7249              1020.8601              1022.4000
 Red. masses --      1.2863                 1.3450                 6.0588
 Frc consts  --      0.7880                 0.8259                 3.7315
 IR Inten    --      0.2581                 5.4979                 1.1546

                     40                     41                     42
                      A                      A                      A
 Frequencies --   1054.4876              1080.0353              1114.2362
 Red. masses --      2.1792                 2.9221                 1.9396
 Frc consts  --      1.4276                 2.0082                 1.4188
 IR Inten    --      4.8530                79.5484                 6.1796

                     43                     44                     45
                      A                      A                      A
 Frequencies --   1115.5915              1126.1417              1194.9734
 Red. masses --      2.0025                10.2135                 1.0934
 Frc consts  --      1.4683                 7.6315                 0.9199
 IR Inten    --     36.8810               256.2800                 0.1566

                     46                     47                     48
                      A                      A                      A
 Frequencies --   1206.0610              1221.1593              1249.8774
 Red. masses --      1.1471                 1.9844                 2.6232
 Frc consts  --      0.9831                 1.7435                 2.4144
 IR Inten    --      3.6554                67.6044                 7.4271

                     49                     50                     51
                      A                      A                      A
 Frequencies --   1302.9124              1345.7562              1350.4129
 Red. masses --      5.1040                 2.8654                 2.5196
 Frc consts  --      5.1049                 3.0576                 2.7072
 IR Inten    --    166.2502                70.4377               142.9944

                     52                     53                     54
                      A                      A                      A
 Frequencies --   1367.9738              1391.7657              1397.8442
 Red. masses --      3.3442                 1.9056                 1.3291
 Frc consts  --      3.6872                 2.1748                 1.5301
 IR Inten    --      4.1476                32.2589                25.8110

                     55                     56                     57
                      A                      A                      A
 Frequencies --   1421.3324              1468.9629              1475.5809
 Red. masses --      2.6022                 3.0066                 1.0701
 Frc consts  --      3.0973                 3.8225                 1.3728
 IR Inten    --    101.9667                14.0973                 6.2417

                     58                     59                     60
                      A                      A                      A
 Frequencies --   1476.9779              1497.1894              1518.7610
 Red. masses --      1.0561                 2.3446                 2.7271
 Frc consts  --      1.3574                 3.0965                 3.7062
 IR Inten    --     10.8877                10.3519                25.1681

                     61                     62                     63
                      A                      A                      A
 Frequencies --   1542.5709              1650.6253              1654.0539
 Red. masses --      2.4289                 5.6489                 5.7102
 Frc consts  --      3.4052                 9.0680                 9.2046
 IR Inten    --     39.8490               189.9084                58.5395

                     64                     65                     66
                      A                      A                      A
 Frequencies --   1665.6430              3110.8622              3213.6948
 Red. masses --      5.5161                 1.0293                 1.1073
 Frc consts  --      9.0166                 5.8686                 6.7379
 IR Inten    --    325.0463                 0.5394                 0.4162

                     67                     68                     69
                      A                      A                      A
 Frequencies --   3218.7171              3227.1128              3232.0212
 Red. masses --      1.0874                 1.1089                 1.0897
 Frc consts  --      6.6373                 6.8041                 6.7066
 IR Inten    --      1.6979                 0.2655                12.4800

                     70                     71                     72
                      A                      A                      A
 Frequencies --   3237.5692              3246.7559              3255.5229
 Red. masses --      1.0933                 1.0958                 1.0943
 Frc consts  --      6.7518                 6.8058                 6.8335
 IR Inten    --     26.9684                 7.5834                 1.5927

                     73                     74                     75
                      A                      A                      A
 Frequencies --   3353.0140              3521.1341              3526.2152
 Red. masses --      1.1016                 1.0856                 1.0786
 Frc consts  --      7.2971                 7.9302                 7.9015
 IR Inten    --     28.3915               653.6904               135.9429

 - Thermochemistry -
 -------------------
 Temperature   298.150 Kelvin.  Pressure   1.00000 Atm.
 Atom     1 has atomic number  8 and mass  15.99491

 Molecular mass:   239.06027 amu.
 Principal axes and moments of inertia in atomic units:
                           1         2         3
     Eigenvalues --  1016.678909521.327179893.76315
           X            0.99919  -0.03808  -0.01273
           Y            0.03639   0.99286  -0.11364
           Z            0.01697   0.11308   0.99344
 This molecule is an asymmetric top.
 Rotational symmetry number  1.
 Warning -- assumption of classical behavior for rotation
           may cause significant error
 Rotational temperatures (Kelvin)      0.08519     0.00910     0.00875
 Rotational constants (GHZ):           1.77513     0.18955     0.18241
    1 imaginary frequencies ignored.
 Zero-point vibrational energy     547240.9 (Joules/Mol)
                                  130.79371 (Kcal/Mol)
 Warning -- explicit consideration of  20 degrees of freedom as
           vibrations may cause significant error
 Vibrational temperatures:     44.16    66.44   113.56   135.65   193.14
          (Kelvin)            316.52   345.27   371.14   386.72   428.88
                              488.90   535.52   554.27   603.17   613.22
                              659.75   698.12   743.39   784.00   868.76
                              901.83   955.73  1006.05  1009.83  1013.63
                             1066.57  1123.58  1129.63  1175.05  1213.97
                             1227.33  1361.38  1419.60  1450.09  1461.45
                             1467.16  1468.79  1471.01  1517.17  1553.93
                             1603.14  1605.09  1620.27  1719.30  1735.25
                             1756.98  1798.29  1874.60  1936.24  1942.94
                             1968.21  2002.44  2011.19  2044.98  2113.51
                             2123.03  2125.04  2154.12  2185.16  2219.42
                             2374.88  2379.81  2396.49  4475.84  4623.79
                             4631.02  4643.10  4650.16  4658.14  4671.36
                             4683.97  4824.24  5066.13  5073.44

 Zero-point correction=                           0.208433 (Hartree/Particle)
 Thermal correction to Energy=                    0.221852
 Thermal correction to Enthalpy=                  0.222796
 Thermal correction to Gibbs Free Energy=         0.167083
 Sum of electronic and zero-point Energies=          -1116.775614
 Sum of electronic and thermal Energies=             -1116.762195
 Sum of electronic and thermal Enthalpies=           -1116.761250
 Sum of electronic and thermal Free Energies=        -1116.816963

                     E (Thermal)             CV                S
                      KCal/Mol        Cal/Mol-Kelvin    Cal/Mol-Kelvin
 Total                  139.214             52.451            117.258
 Electronic               0.000              0.000              0.000
 Translational            0.889              2.981             42.316
 Rotational               0.889              2.981             32.926
 Vibrational            137.437             46.490             42.016
 Vibration     1          0.594              1.984              5.784
 Vibration     2          0.595              1.979              4.975
 Vibration     3          0.600              1.963              3.917
 Vibration     4          0.603              1.953              3.569
 Vibration     5          0.613              1.919              2.884
 Vibration     6          0.647              1.811              1.959
 Vibration     7          0.657              1.779              1.803
 Vibration     8          0.667              1.749              1.676
 Vibration     9          0.673              1.731              1.604
 Vibration    10          0.691              1.677              1.428
 Vibration    11          0.720              1.596              1.213
 Vibration    12          0.744              1.529              1.071
 Vibration    13          0.754              1.502              1.019
 Vibration    14          0.782              1.428              0.895
 Vibration    15          0.788              1.413              0.871
 Vibration    16          0.817              1.342              0.770
 Vibration    17          0.841              1.283              0.696
 Vibration    18          0.872              1.213              0.618
 Vibration    19          0.900              1.151              0.555
 Vibration    20          0.962              1.024              0.443

                           ! Non-Optimized Parameters !
 Normal termination of Gaussian 16 at Thu Sep 24 15:34:56 2020.

 ----------------------------------------------------------------------
 #p b3lyp/6-31G(d) scrf=(iefpcm,read,solvent=water) geom=allcheck guess
 =read
 ----------------------------------------------------------------------

 Structure from the checkpoint file:  "SM44_m2.b.7.pdb.xyz.mst.b.w.chk"
 -------------------
 SM44_m2.b.7.pdb.xyz
 -------------------
 Charge =  1 Multiplicity = 1

 SCF Done:  E(RB3LYP) =  -1116.98383850     A.U. after    8 cycles
 Normal termination of Gaussian 16 at Thu Sep 24 15:35:24 2020.

 -----------------------------
 #p B3LYP/6-31G* geom=allcheck
 -----------------------------

 Structure from the checkpoint file:  "SM44_m2.b.7.pdb.xyz.mst.b.w.chk"
 -------------------
 SM44_m2.b.7.pdb.xyz
 -------------------
 Charge =  1 Multiplicity = 1

 SCF Done:  E(RB3LYP) =  -1116.87988249     A.U. after   16 cycles
 Normal termination of Gaussian 16 at Thu Sep 24 15:35:53 2020.
 Gaussian 16:  ES64L-G16RevB.01 20-Dec-2017

 ----------------------------------------------------------------------
 #p mp2/aug-cc-pVDZ scf=(MaxCycle=2000,NoVarAcc,NoIncFock) maxdisk=120G
 B geom=allcheck
 ----------------------------------------------------------------------

 Structure from the checkpoint file:  "SM44_m2.b.7.pdb.xyz.mst.b.w.chk"
 -------------------
 SM44_m2.b.7.pdb.xyz
 -------------------
 Charge =  1 Multiplicity = 1

                         Standard orientation:
 ---------------------------------------------------------------------
 Center     Atomic      Atomic             Coordinates (Angstroms)
 Number     Number       Type             X           Y           Z
 ---------------------------------------------------------------------
      1          8           0       -2.957785   -1.031292    1.112250
      2         16           0       -3.492607    0.109416    0.364286
      3          7           0       -2.178850    0.800207   -0.510518
      4          6           0       -0.907680    0.272710   -0.426959
      5          7           0       -0.584177   -1.010938   -0.739392
      6          7           0        0.704677   -1.262814   -0.637142
      7          6           0        0.297417    0.866658   -0.108731
      8          7           0        1.230896   -0.110938   -0.266166
      9          6           0        2.647865   -0.009420   -0.064271
     10          6           0        3.284850    1.200809   -0.337279
     11          6           0        4.660847    1.290230   -0.133462
     12          6           0        5.378660    0.183675    0.324542
     13          6           0        4.720669   -1.020687    0.586267
     14          6           0        3.344520   -1.125461    0.398956
     15          6           0       -4.552994   -0.477539   -0.947833
     16          8           0       -4.147817    1.218940    1.059314
     17          1           0       -2.208929    1.819788   -0.482089
     18          1           0        0.528631    1.863791    0.222368
     19          1           0        2.726499    2.047733   -0.716695
     20          1           0        5.169491    2.223886   -0.343492
     21          1           0        6.449364    0.259685    0.477732
     22          1           0        5.275111   -1.879333    0.946892
     23          1           0        2.815107   -2.045080    0.612420
     24          1           0       -4.005831   -1.221149   -1.525737
     25          1           0       -4.839221    0.372685   -1.565832
     26          1           0       -5.427484   -0.922007   -0.470977
     27          1           0       -1.208966   -1.766309   -1.030539
 ---------------------------------------------------------------------

 SCF Done:  E(RHF) =  -1112.00187444     A.U. after   17 cycles
 E2 =    -0.2470451965D+01 EUMP2 =    -0.11144723264061D+04

 The electronic state is 1-A.
 Alpha  occ. eigenvalues --  -92.37284 -20.70602 -20.69943 -15.89447 -15.87763
 Alpha  occ. eigenvalues --  -15.87163 -15.79110 -11.53750 -11.47822 -11.44373
 Alpha  occ. eigenvalues --  -11.42008 -11.39475 -11.38957 -11.37848 -11.37706
 Alpha  occ. eigenvalues --  -11.37591  -9.34095  -7.02610  -7.02596  -7.02423
 Alpha  occ. eigenvalues --   -1.68194  -1.60389  -1.48276  -1.47196  -1.42209
 Alpha  occ. eigenvalues --   -1.30068  -1.29071  -1.19470  -1.18436  -1.16351
 Alpha  occ. eigenvalues --   -1.09257  -1.07309  -1.01992  -0.97738  -0.96165
 Alpha  occ. eigenvalues --   -0.94034  -0.89198  -0.88027  -0.87376  -0.85790
 Alpha  occ. eigenvalues --   -0.82582  -0.81554  -0.81064  -0.78810  -0.76975
 Alpha  occ. eigenvalues --   -0.74818  -0.74204  -0.73443  -0.73291  -0.71620
 Alpha  occ. eigenvalues --   -0.69604  -0.67332  -0.65277  -0.64360  -0.63889
 Alpha  occ. eigenvalues --   -0.63522  -0.62202  -0.60957  -0.60383  -0.53012
 Alpha  occ. eigenvalues --   -0.47652  -0.47387
 Alpha virt. eigenvalues --   -0.09304  -0.07695  -0.06383  -0.05169  -0.04376
 Alpha virt. eigenvalues --   -0.03871  -0.03796  -0.02864  -0.02385  -0.02247
 Alpha virt. eigenvalues --   -0.01978  -0.01589  -0.01008  -0.00425  -0.00059

 Mulliken charges:
               1
     1  O   -1.112478
     2  S    2.608061
     3  N   -0.900424
     4  C    0.361258
     5  N   -0.310644
     6  N   -0.306819
     7  C    1.585080
     8  N   -0.630145
     9  C    0.931462
    10  C    0.156712
    11  C    0.721219
    12  C    0.568012
    13  C    0.589771
    14  C    0.372346
    15  C    0.109298
    16  O   -1.085201
    17  H    0.011392
    18  H   -0.421417
    19  H   -0.630921
    20  H   -0.412807
    21  H   -0.416298
    22  H   -0.406212
    23  H   -0.514583
    24  H   -0.006678
    25  H    0.039988
    26  H    0.093400
    27  H    0.006626
 Sum of Mulliken charges =   1.00000

 Dipole moment (field-independent basis, Debye):
    X=              1.7736    Y=              0.4114    Z=             -5.1556  Tot=              5.4677
 Quadrupole moment (field-independent basis, Debye-Ang):
   XX=            -39.5292   YY=            -84.4698   ZZ=           -102.3646
   XY=              8.5313   XZ=             22.0333   YZ=             -0.5952

 Normal termination of Gaussian 16 at Thu Sep 24 15:51:57 2020.
