 Gaussian 16, Revision B.01,

 ----------------------------------------------------------------------
 #p b3lyp/6-31G(d) opt freq NoSymm scf=(MaxCycle=2000,NoVarAcc,NoIncFoc
 k) scrf=(iefpcm,read,solvent=water)
 ----------------------------------------------------------------------

 -------------------
 SM44_m1.a.6.pdb.xyz
 -------------------
 Symbolic Z-matrix:
 Charge = -1 Multiplicity = 1

 SCF Done:  E(RB3LYP) =  -1116.06475752     A.U. after   13 cycles
 SCF Done:  E(RB3LYP) =  -1116.06470150     A.U. after   10 cycles
 SCF Done:  E(RB3LYP) =  -1116.06468780     A.U. after    9 cycles
 SCF Done:  E(RB3LYP) =  -1116.06475561     A.U. after   10 cycles
 SCF Done:  E(RB3LYP) =  -1116.06475840     A.U. after    8 cycles
 SCF Done:  E(RB3LYP) =  -1116.06466576     A.U. after   10 cycles
 SCF Done:  E(RB3LYP) =  -1116.06466811     A.U. after    9 cycles
 SCF Done:  E(RB3LYP) =  -1116.06475409     A.U. after   10 cycles
 SCF Done:  E(RB3LYP) =  -1116.06475821     A.U. after    9 cycles
 SCF Done:  E(RB3LYP) =  -1116.06466606     A.U. after   10 cycles
 SCF Done:  E(RB3LYP) =  -1116.06475328     A.U. after   10 cycles
 SCF Done:  E(RB3LYP) =  -1116.06475800     A.U. after    9 cycles
 SCF Done:  E(RB3LYP) =  -1116.06466722     A.U. after   10 cycles
 SCF Done:  E(RB3LYP) =  -1116.06466575     A.U. after    8 cycles
 SCF Done:  E(RB3LYP) =  -1116.06475329     A.U. after   10 cycles
 SCF Done:  E(RB3LYP) =  -1116.06466457     A.U. after   10 cycles
 Optimization completed on the basis of negligible forces.
    -- Stationary point found.
 Normal termination of Gaussian 16 at Thu Sep 24 15:22:50 2020.

 --------------------------------------------------------------------
 #P Geom=AllCheck Guess=TCheck SCRF=Check GenChk RB3LYP/6-31G(d) Freq
 --------------------------------------------------------------------

 Structure from the checkpoint file:  "SM44_m1.a.6.pdb.xyz.mst.a.w.chk"
 -------------------
 SM44_m1.a.6.pdb.xyz
 -------------------
 Charge = -1 Multiplicity = 1

 SCF Done:  E(RB3LYP) =  -1116.06466457     A.U. after    1 cycles

  Exact polarizability: 292.687   7.169 194.610  -6.529 -30.166 103.871
 Approx polarizability: 302.521  13.489 248.740  -2.688 -36.726 129.002

                      1                      2                      3
                      A                      A                      A
 Frequencies --     28.5755                36.2333                65.0655
 Red. masses --      5.6606                 4.5103                 6.4231
 Frc consts  --      0.0027                 0.0035                 0.0160
 IR Inten    --     11.5477                 0.7814                 7.8310

                      4                      5                      6
                      A                      A                      A
 Frequencies --     68.9117                94.5107               146.7548
 Red. masses --      7.8220                 5.6934                 5.9000
 Frc consts  --      0.0219                 0.0300                 0.0749
 IR Inten    --      2.7703                10.1834                15.1131

                      7                      8                      9
                      A                      A                      A
 Frequencies --    226.8646               235.0090               244.9384
 Red. masses --      1.1956                 3.1105                 3.7789
 Frc consts  --      0.0363                 0.1012                 0.1336
 IR Inten    --      1.1094                 2.3033                 4.7730

                     10                     11                     12
                      A                      A                      A
 Frequencies --    298.9427               330.8166               358.2777
 Red. masses --      4.5603                 7.7197                 6.4378
 Frc consts  --      0.2401                 0.4978                 0.4869
 IR Inten    --      1.9350                 8.4822                 0.5561

                     13                     14                     15
                      A                      A                      A
 Frequencies --    370.6074               420.0317               452.4652
 Red. masses --      6.8243                 3.0544                 8.3421
 Frc consts  --      0.5523                 0.3175                 1.0062
 IR Inten    --      0.3363                 0.1166                22.2830

                     16                     17                     18
                      A                      A                      A
 Frequencies --    477.1378               491.0248               528.1737
 Red. masses --      7.9194                 7.0782                 4.6074
 Frc consts  --      1.0623                 1.0055                 0.7573
 IR Inten    --     18.7885                51.0054                56.0095

                     19                     20                     21
                      A                      A                      A
 Frequencies --    541.2614               628.4109               667.4094
 Red. masses --      5.3767                 6.4300                 4.7487
 Frc consts  --      0.9281                 1.4961                 1.2463
 IR Inten    --     87.3204                 0.1601                 5.5325

                     22                     23                     24
                      A                      A                      A
 Frequencies --    681.2553               702.8534               706.6669
 Red. masses --      6.7549                 2.1187                 2.3438
 Frc consts  --      1.8471                 0.6167                 0.6896
 IR Inten    --     32.9259                14.2038                17.8174

                     25                     26                     27
                      A                      A                      A
 Frequencies --    735.3299               747.5332               770.6408
 Red. masses --      3.5975                 3.5243                 6.5222
 Frc consts  --      1.1461                 1.1603                 2.2822
 IR Inten    --     49.9265                49.5891               145.4079

                     28                     29                     30
                      A                      A                      A
 Frequencies --    779.5769               855.2055               930.6360
 Red. masses --      1.6761                 1.2498                 1.4000
 Frc consts  --      0.6002                 0.5385                 0.7144
 IR Inten    --     54.1648                 0.2633                 6.1766

                     31                     32                     33
                      A                      A                      A
 Frequencies --    943.5387               981.7490               995.2592
 Red. masses --      9.0385                 1.3381                 1.3673
 Frc consts  --      4.7409                 0.7599                 0.7980
 IR Inten    --    310.8546                 0.3585                 2.2721

                     34                     35                     36
                      A                      A                      A
 Frequencies --   1000.4969              1005.6267              1009.2020
 Red. masses --      1.6752                 7.3239                 1.2602
 Frc consts  --      0.9880                 4.3638                 0.7562
 IR Inten    --     36.6021                18.9281                 0.3007

                     37                     38                     39
                      A                      A                      A
 Frequencies --   1018.1648              1051.0809              1052.8433
 Red. masses --      6.0479                 2.5471                 2.3210
 Frc consts  --      3.6940                 1.6579                 1.5158
 IR Inten    --      2.8148                23.3867               168.7925

                     40                     41                     42
                      A                      A                      A
 Frequencies --   1073.4781              1086.4808              1108.5225
 Red. masses --      3.6622                 5.8855                 1.6438
 Frc consts  --      2.4864                 4.0933                 1.1901
 IR Inten    --    269.7678               217.5439                52.6634

                     43                     44                     45
                      A                      A                      A
 Frequencies --   1173.3637              1186.7221              1199.0527
 Red. masses --     12.0918                 1.1144                 1.1999
 Frc consts  --      9.8086                 0.9247                 1.0164
 IR Inten    --    433.4356                 0.5664                 0.2106

                     46                     47                     48
                      A                      A                      A
 Frequencies --   1227.1077              1252.1860              1278.7305
 Red. masses --      4.5602                 2.8499                 4.8630
 Frc consts  --      4.0458                 2.6328                 4.6850
 IR Inten    --     27.2251                43.8362               277.1077

                     49                     50                     51
                      A                      A                      A
 Frequencies --   1335.7523              1364.6808              1376.5598
 Red. masses --      3.3935                 2.6608                 3.2623
 Frc consts  --      3.5674                 2.9196                 3.6423
 IR Inten    --     99.6758                 0.6981               281.5711

                     52                     53                     54
                      A                      A                      A
 Frequencies --   1390.5432              1448.3652              1483.1864
 Red. masses --      1.2612                 4.6678                 1.0508
 Frc consts  --      1.4369                 5.7692                 1.3619
 IR Inten    --     26.1385               203.9958                 7.4055

                     55                     56                     57
                      A                      A                      A
 Frequencies --   1489.7660              1510.7651              1544.2947
 Red. masses --      1.0483                 2.4772                 2.6947
 Frc consts  --      1.3708                 3.3312                 3.7864
 IR Inten    --      5.7895                22.8613               433.0383

                     58                     59                     60
                      A                      A                      A
 Frequencies --   1576.4117              1651.2375              1657.8377
 Red. masses --      6.3752                 6.3444                 5.7143
 Frc consts  --      9.3344                10.1920                 9.2533
 IR Inten    --    481.3448                 7.1339                46.5147

                     61                     62                     63
                      A                      A                      A
 Frequencies --   3105.9809              3203.5495              3208.8198
 Red. masses --      1.0305                 1.1066                 1.0861
 Frc consts  --      5.8572                 6.6910                 6.5886
 IR Inten    --      2.7737                 5.7828                 0.2416

                     64                     65                     66
                      A                      A                      A
 Frequencies --   3209.7717              3218.0957              3227.5159
 Red. masses --      1.1076                 1.0899                 1.0941
 Frc consts  --      6.7232                 6.6501                 6.7152
 IR Inten    --      4.7454                22.0965                48.5855

                     67                     68                     69
                      A                      A                      A
 Frequencies --   3238.4930              3250.4782              3340.6993
 Red. masses --      1.0948                 1.0932                 1.0980
 Frc consts  --      6.7647                 6.8050                 7.2197
 IR Inten    --     12.2696                 3.4118                 8.2207

 - Thermochemistry -
 -------------------
 Temperature   298.150 Kelvin.  Pressure   1.00000 Atm.
 Atom     1 has atomic number  8 and mass  15.99491

 Molecular mass:   237.04462 amu.
 Principal axes and moments of inertia in atomic units:
                           1         2         3
     Eigenvalues --  1301.868398274.972689152.22147
           X            0.99586   0.06636   0.06214
           Y           -0.07794   0.97504   0.20790
           Z           -0.04679  -0.21188   0.97617
 This molecule is an asymmetric top.
 Rotational symmetry number  1.
 Warning -- assumption of classical behavior for rotation
           may cause significant error
 Rotational temperatures (Kelvin)      0.06653     0.01047     0.00946
 Rotational constants (GHZ):           1.38627     0.21810     0.19719
 Zero-point vibrational energy     479089.6 (Joules/Mol)
                                  114.50517 (Kcal/Mol)
 Warning -- explicit consideration of  19 degrees of freedom as
           vibrations may cause significant error
 Vibrational temperatures:     41.11    52.13    93.61    99.15   135.98
          (Kelvin)            211.15   326.41   338.13   352.41   430.11
                              475.97   515.48   533.22   604.33   651.00
                              686.49   706.48   759.92   778.75   904.14
                              960.25   980.17  1011.25  1016.74  1057.98
                             1075.53  1108.78  1121.64  1230.45  1338.98
                             1357.54  1412.52  1431.96  1439.49  1446.87
                             1452.02  1464.91  1512.27  1514.81  1544.50
                             1563.20  1594.92  1688.21  1707.43  1725.17
                             1765.53  1801.62  1839.81  1921.85  1963.47
                             1980.56  2000.68  2083.87  2133.97  2143.44
                             2173.65  2221.90  2268.10  2375.76  2385.26
                             4468.81  4609.19  4616.78  4618.15  4630.12
                             4643.68  4659.47  4676.71  4806.52

 Zero-point correction=                           0.182476 (Hartree/Particle)
 Thermal correction to Energy=                    0.196145
 Thermal correction to Enthalpy=                  0.197089
 Thermal correction to Gibbs Free Energy=         0.139891
 Sum of electronic and zero-point Energies=          -1115.882189
 Sum of electronic and thermal Energies=             -1115.868520
 Sum of electronic and thermal Enthalpies=           -1115.867575
 Sum of electronic and thermal Free Energies=        -1115.924774

                     E (Thermal)             CV                S
                      KCal/Mol        Cal/Mol-Kelvin    Cal/Mol-Kelvin
 Total                  123.083             51.825            120.384
 Electronic               0.000              0.000              0.000
 Translational            0.889              2.981             42.291
 Rotational               0.889              2.981             32.955
 Vibrational            121.305             45.863             45.138
 Vibration     1          0.593              1.984              5.926
 Vibration     2          0.594              1.982              5.455
 Vibration     3          0.597              1.971              4.297
 Vibration     4          0.598              1.969              4.184
 Vibration     5          0.603              1.953              3.564
 Vibration     6          0.617              1.906              2.714
 Vibration     7          0.651              1.800              1.904
 Vibration     8          0.655              1.787              1.840
 Vibration     9          0.660              1.771              1.767
 Vibration    10          0.692              1.676              1.423
 Vibration    11          0.713              1.614              1.256
 Vibration    12          0.733              1.558              1.130
 Vibration    13          0.743              1.533              1.077
 Vibration    14          0.783              1.427              0.892
 Vibration    15          0.811              1.355              0.788
 Vibration    16          0.834              1.301              0.718
 Vibration    17          0.847              1.270              0.681
 Vibration    18          0.883              1.188              0.591
 Vibration    19          0.896              1.159              0.563

 Optimization completed.
    -- Stationary point found.
 Normal termination of Gaussian 16 at Thu Sep 24 15:28:10 2020.

 ----------------------------------------------------------------------
 #p b3lyp/6-31G(d) scrf=(iefpcm,read,solvent=water) geom=allcheck guess
 =read
 ----------------------------------------------------------------------

 Structure from the checkpoint file:  "SM44_m1.a.6.pdb.xyz.mst.a.w.chk"
 -------------------
 SM44_m1.a.6.pdb.xyz
 -------------------
 Charge = -1 Multiplicity = 1

 SCF Done:  E(RB3LYP) =  -1116.06468244     A.U. after    7 cycles
 Normal termination of Gaussian 16 at Thu Sep 24 15:28:34 2020.

 -----------------------------
 #p B3LYP/6-31G* geom=allcheck
 -----------------------------

 Structure from the checkpoint file:  "SM44_m1.a.6.pdb.xyz.mst.a.w.chk"
 -------------------
 SM44_m1.a.6.pdb.xyz
 -------------------
 Charge = -1 Multiplicity = 1

 SCF Done:  E(RB3LYP) =  -1115.96458476     A.U. after   15 cycles
 Normal termination of Gaussian 16 at Thu Sep 24 15:29:00 2020.
 Gaussian 16:  ES64L-G16RevB.01 20-Dec-2017

 ----------------------------------------------------------------------
 #p mp2/aug-cc-pVDZ scf=(MaxCycle=2000,NoVarAcc,NoIncFock) maxdisk=120G
 B geom=allcheck
 ----------------------------------------------------------------------

 Structure from the checkpoint file:  "SM44_m1.a.6.pdb.xyz.mst.a.w.chk"
 -------------------
 SM44_m1.a.6.pdb.xyz
 -------------------
 Charge = -1 Multiplicity = 1

                         Standard orientation:
 ---------------------------------------------------------------------
 Center     Atomic      Atomic             Coordinates (Angstroms)
 Number     Number       Type             X           Y           Z
 ---------------------------------------------------------------------
      1          8           0       -2.684419   -1.373288   -1.091412
      2         16           0       -3.163835   -0.449843   -0.016802
      3          7           0       -2.423712    0.970201    0.007960
      4          6           0       -1.046048    0.960444    0.071392
      5          7           0       -0.386105    2.147442    0.301172
      6          7           0        0.910767    1.941464    0.297539
      7          6           0       -0.074757   -0.024936   -0.081622
      8          7           0        1.115229    0.630177    0.068896
      9          6           0        2.432022    0.099642    0.016932
     10          6           0        2.645233   -1.258285    0.270061
     11          6           0        3.940374   -1.771253    0.207653
     12          6           0        5.018569   -0.936643   -0.091381
     13          6           0        4.794701    0.420953   -0.334951
     14          6           0        3.503947    0.944519   -0.289968
     15          6           0       -4.829133    0.052111   -0.452784
     16          8           0       -3.250615   -1.113469    1.321086
     17          1           0       -0.140156   -1.073004   -0.312267
     18          1           0        1.812461   -1.902848    0.525060
     19          1           0        4.103618   -2.825513    0.403299
     20          1           0        6.024575   -1.339982   -0.135104
     21          1           0        5.625849    1.076278   -0.572180
     22          1           0        3.315104    1.991162   -0.490834
     23          1           0       -4.818489    0.513538   -1.439747
     24          1           0       -5.198906    0.755331    0.292974
     25          1           0       -5.445104   -0.847717   -0.460722
 ---------------------------------------------------------------------

 SCF Done:  E(RHF) =  -1111.09257878     A.U. after   17 cycles
 E2 =    -0.2491670071D+01 EUMP2 =    -0.11135842488532D+04

 The electronic state is 1-A.
 Alpha  occ. eigenvalues --  -92.04099 -20.37950 -20.37554 -15.54325 -15.51723
 Alpha  occ. eigenvalues --  -15.46476 -15.37783 -11.20875 -11.16927 -11.16879
 Alpha  occ. eigenvalues --  -11.16262 -11.16145 -11.16124 -11.15868 -11.13304
 Alpha  occ. eigenvalues --  -11.13251  -9.00916  -6.69428  -6.69389  -6.69347
 Alpha  occ. eigenvalues --   -1.30813  -1.26686  -1.14181  -1.11783  -1.06034
 Alpha  occ. eigenvalues --   -1.03777  -0.94583  -0.93385  -0.92049  -0.87077
 Alpha  occ. eigenvalues --   -0.78038  -0.75980  -0.70893  -0.68616  -0.64721
 Alpha  occ. eigenvalues --   -0.61884  -0.58138  -0.55110  -0.54660  -0.52469
 Alpha  occ. eigenvalues --   -0.51554  -0.50795  -0.50279  -0.49417  -0.48529
 Alpha  occ. eigenvalues --   -0.44734  -0.44010  -0.43803  -0.42580  -0.42127
 Alpha  occ. eigenvalues --   -0.38417  -0.36121  -0.34658  -0.31501  -0.31207
 Alpha  occ. eigenvalues --   -0.29286  -0.29237  -0.26762  -0.26196  -0.25311
 Alpha  occ. eigenvalues --   -0.22877  -0.14483
 Alpha virt. eigenvalues --    0.09226   0.10345   0.11459   0.12754   0.13608
 Alpha virt. eigenvalues --    0.14652   0.14779   0.15200   0.16127   0.18187
 Alpha virt. eigenvalues --    0.18342   0.18414   0.19423   0.20117   0.20399

 Mulliken charges:
               1
     1  O   -1.294618
     2  S    2.820148
     3  N   -1.252392
     4  C    0.221806
     5  N   -0.737626
     6  N   -0.485275
     7  C    1.218880
     8  N   -0.724580
     9  C    0.750205
    10  C    0.435375
    11  C    0.545249
    12  C    0.622243
    13  C    0.555960
    14  C    0.585862
    15  C    0.157252
    16  O   -1.263694
    17  H   -0.588031
    18  H   -0.635775
    19  H   -0.457527
    20  H   -0.462108
    21  H   -0.452976
    22  H   -0.524120
    23  H    0.002794
    24  H   -0.009373
    25  H   -0.027679
 Sum of Mulliken charges =  -1.00000

 Dipole moment (field-independent basis, Debye):
    X=              8.1984    Y=             -1.6054    Z=             -1.7217  Tot=              8.5297
 Quadrupole moment (field-independent basis, Debye-Ang):
   XX=           -122.4759   YY=           -121.2852   ZZ=           -116.1313
   XY=             -9.1664   XZ=              4.3088   YZ=             -3.5440

 Normal termination of Gaussian 16 at Thu Sep 24 15:48:35 2020.
