 Gaussian 16, Revision B.01,

 ----------------------------------------------------------------------
 #p b3lyp/6-31G(d) opt freq NoSymm scf=(MaxCycle=2000,NoVarAcc,NoIncFoc
 k) scrf=(iefpcm,read,solvent=water)
 ----------------------------------------------------------------------

 -------------------
 SM44_m1.a.1.pdb.xyz
 -------------------
 Symbolic Z-matrix:
 Charge = -1 Multiplicity = 1

 SCF Done:  E(RB3LYP) =  -1116.06469110     A.U. after   13 cycles
 SCF Done:  E(RB3LYP) =  -1116.06459288     A.U. after   10 cycles
 SCF Done:  E(RB3LYP) =  -1116.06447372     A.U. after   10 cycles
 SCF Done:  E(RB3LYP) =  -1116.06468715     A.U. after   10 cycles
 SCF Done:  E(RB3LYP) =  -1116.06469219     A.U. after    9 cycles
 SCF Done:  E(RB3LYP) =  -1116.06457651     A.U. after   10 cycles
 SCF Done:  E(RB3LYP) =  -1116.06444396     A.U. after   13 cycles
 SCF Done:  E(RB3LYP) =  -1116.06468185     A.U. after   11 cycles
 SCF Done:  E(RB3LYP) =  -1116.06469208     A.U. after    9 cycles
 SCF Done:  E(RB3LYP) =  -1116.06437965     A.U. after   11 cycles
 SCF Done:  E(RB3LYP) =  -1116.06443952     A.U. after    7 cycles
 SCF Done:  E(RB3LYP) =  -1116.06467644     A.U. after   11 cycles
 SCF Done:  E(RB3LYP) =  -1116.06443757     A.U. after   11 cycles
 SCF Done:  E(RB3LYP) =  -1116.06467662     A.U. after   11 cycles
 SCF Done:  E(RB3LYP) =  -1116.06469208     A.U. after   10 cycles
 SCF Done:  E(RB3LYP) =  -1116.06443885     A.U. after   11 cycles
 Optimization completed.
    -- Stationary point found.
 Normal termination of Gaussian 16 at Thu Sep 24 15:04:42 2020.

 --------------------------------------------------------------------
 #P Geom=AllCheck Guess=TCheck SCRF=Check GenChk RB3LYP/6-31G(d) Freq
 --------------------------------------------------------------------

 Structure from the checkpoint file:  "SM44_m1.a.1.pdb.xyz.mst.a.w.chk"
 -------------------
 SM44_m1.a.1.pdb.xyz
 -------------------
 Charge = -1 Multiplicity = 1

 SCF Done:  E(RB3LYP) =  -1116.06443885     A.U. after    1 cycles

  Exact polarizability: 309.959  -5.227 125.269  -2.226 -46.418 164.632
 Approx polarizability: 321.368  -7.069 155.939  -1.091 -65.026 208.229

                      1                      2                      3
                      A                      A                      A
 Frequencies --     31.5216                36.9522                75.2379
 Red. masses --      4.8971                 5.7293                 5.2451
 Frc consts  --      0.0029                 0.0046                 0.0175
 IR Inten    --      5.2924                 1.8906                10.8766

                      4                      5                      6
                      A                      A                      A
 Frequencies --     87.0480                96.7942               148.4292
 Red. masses --      6.0142                 6.2350                 6.1571
 Frc consts  --      0.0269                 0.0344                 0.0799
 IR Inten    --      7.4445                 5.4317                 0.2399

                      7                      8                      9
                      A                      A                      A
 Frequencies --    223.7385               246.4088               265.9361
 Red. masses --      4.6468                 1.1227                 5.6863
 Frc consts  --      0.1371                 0.0402                 0.2369
 IR Inten    --      1.5751                 1.9503                11.6614

                     10                     11                     12
                      A                      A                      A
 Frequencies --    293.0055               306.5588               348.7877
 Red. masses --      4.5893                 5.1443                 5.3735
 Frc consts  --      0.2321                 0.2848                 0.3851
 IR Inten    --      3.9358                 2.0162                 1.5765

                     13                     14                     15
                      A                      A                      A
 Frequencies --    404.3910               416.9590               425.5724
 Red. masses --      7.6983                 3.3689                 6.8822
 Frc consts  --      0.7417                 0.3451                 0.7344
 IR Inten    --      7.2385                 1.1241                 1.8144

                     16                     17                     18
                      A                      A                      A
 Frequencies --    467.0782               488.5961               526.8329
 Red. masses --      6.5270                 8.2351                 3.8739
 Frc consts  --      0.8390                 1.1583                 0.6335
 IR Inten    --     64.3831                82.2428                27.7325

                     19                     20                     21
                      A                      A                      A
 Frequencies --    554.7871               628.8370               667.2773
 Red. masses --      5.5277                 6.4383                 3.6191
 Frc consts  --      1.0024                 1.5000                 0.9494
 IR Inten    --     42.6002                 0.1204                 3.3906

                     22                     23                     24
                      A                      A                      A
 Frequencies --    685.7321               693.1087               704.6631
 Red. masses --      7.4960                 2.0703                 2.3296
 Frc consts  --      2.0768                 0.5860                 0.6815
 IR Inten    --     23.0726                 7.0718                21.4399

                     25                     26                     27
                      A                      A                      A
 Frequencies --    709.6177               738.8680               766.6747
 Red. masses --      6.5420                 3.1905                 8.1394
 Frc consts  --      1.9409                 1.0262                 2.8188
 IR Inten    --     31.9692                88.4033               170.2140

                     28                     29                     30
                      A                      A                      A
 Frequencies --    778.9309               852.6914               925.9338
 Red. masses --      1.6672                 1.2525                 6.9544
 Frc consts  --      0.5960                 0.5365                 3.5129
 IR Inten    --     73.2127                 0.2998               133.6988

                     31                     32                     33
                      A                      A                      A
 Frequencies --    930.1262               980.2894               992.3147
 Red. masses --      1.4002                 1.3414                 1.5551
 Frc consts  --      0.7137                 0.7595                 0.9022
 IR Inten    --      7.6029                 0.0794                85.3387

                     34                     35                     36
                      A                      A                      A
 Frequencies --    997.6618              1000.7417              1008.2199
 Red. masses --      3.3082                 1.8300                 1.2598
 Frc consts  --      1.9400                 1.0798                 0.7545
 IR Inten    --     49.4779                11.3842                 0.2932

                     37                     38                     39
                      A                      A                      A
 Frequencies --   1017.8322              1050.1308              1061.1441
 Red. masses --      5.9856                 2.7390                 3.2432
 Frc consts  --      3.6535                 1.7796                 2.1516
 IR Inten    --      1.9338                 6.4120                56.1764

                     40                     41                     42
                      A                      A                      A
 Frequencies --   1072.2296              1093.3742              1111.5232
 Red. masses --      2.8723                 4.4490                 1.7597
 Frc consts  --      1.9456                 3.1336                 1.2810
 IR Inten    --    233.2537               632.4276                67.9660

                     43                     44                     45
                      A                      A                      A
 Frequencies --   1186.8605              1201.9306              1206.0421
 Red. masses --      1.1155                 1.2892                 7.6376
 Frc consts  --      0.9258                 1.0973                 6.5453
 IR Inten    --      0.0787                38.6444               416.7322

                     46                     47                     48
                      A                      A                      A
 Frequencies --   1238.2278              1247.9900              1284.3583
 Red. masses --      4.6282                 5.0412                 2.7084
 Frc consts  --      4.1809                 4.6260                 2.6323
 IR Inten    --     76.8861                15.3519               234.2104

                     49                     50                     51
                      A                      A                      A
 Frequencies --   1335.4654              1366.1844              1371.2658
 Red. masses --      3.4972                 2.8767                 1.4449
 Frc consts  --      3.6749                 3.1635                 1.6008
 IR Inten    --    172.3257                 5.2069               126.4522

                     52                     53                     54
                      A                      A                      A
 Frequencies --   1382.3951              1454.2386              1482.3004
 Red. masses --      2.1752                 4.4364                 1.0526
 Frc consts  --      2.4491                 5.5278                 1.3626
 IR Inten    --    260.0783               197.6535                 2.2043

                     55                     56                     57
                      A                      A                      A
 Frequencies --   1498.9936              1511.6895              1547.2571
 Red. masses --      1.0524                 2.4939                 2.6968
 Frc consts  --      1.3933                 3.3579                 3.8038
 IR Inten    --      4.9048                26.8123               381.2701

                     58                     59                     60
                      A                      A                      A
 Frequencies --   1584.6128              1651.7783              1658.3552
 Red. masses --      6.4830                 6.3237                 5.6781
 Frc consts  --      9.5913                10.1654                 9.2004
 IR Inten    --    407.4335                 7.3284                44.6492

                     61                     62                     63
                      A                      A                      A
 Frequencies --   3097.4994              3193.8227              3206.9109
 Red. masses --      1.0303                 1.1067                 1.1069
 Frc consts  --      5.8242                 6.6511                 6.7071
 IR Inten    --      9.5092                 9.2265                 1.9089

                     64                     65                     66
                      A                      A                      A
 Frequencies --   3209.8033              3219.6342              3229.6810
 Red. masses --      1.0863                 1.0902                 1.0948
 Frc consts  --      6.5942                 6.6586                 6.7285
 IR Inten    --      1.0356                22.8736                47.1296

                     67                     68                     69
                      A                      A                      A
 Frequencies --   3246.0454              3255.9308              3333.8929
 Red. masses --      1.0937                 1.0927                 1.0982
 Frc consts  --      6.7900                 6.8247                 7.1916
 IR Inten    --     10.0500                 2.3819                 6.0470

 - Thermochemistry -
 -------------------
 Temperature   298.150 Kelvin.  Pressure   1.00000 Atm.
 Atom     1 has atomic number  8 and mass  15.99491

 Molecular mass:   237.04462 amu.
 Principal axes and moments of inertia in atomic units:
                           1         2         3
     Eigenvalues --   924.386389493.349309973.20286
           X            0.99747   0.04492   0.05516
           Y           -0.02404  -0.51699   0.85565
           Z           -0.06695   0.85481   0.51460
 This molecule is an asymmetric top.
 Rotational symmetry number  1.
 Warning -- assumption of classical behavior for rotation
           may cause significant error
 Rotational temperatures (Kelvin)      0.09370     0.00912     0.00868
 Rotational constants (GHZ):           1.95237     0.19011     0.18096
 Zero-point vibrational energy     479198.4 (Joules/Mol)
                                  114.53118 (Kcal/Mol)
 Warning -- explicit consideration of  19 degrees of freedom as
           vibrations may cause significant error
 Vibrational temperatures:     45.35    53.17   108.25   125.24   139.27
          (Kelvin)            213.56   321.91   354.53   382.62   421.57
                              441.07   501.83   581.83   599.91   612.30
                              672.02   702.98   758.00   798.21   904.76
                              960.06   986.62   997.23  1013.85  1020.98
                             1063.07  1103.07  1120.71  1226.83  1332.21
                             1338.24  1410.42  1427.72  1435.41  1439.84
                             1450.60  1464.43  1510.90  1526.75  1542.70
                             1573.12  1599.23  1707.63  1729.31  1735.23
                             1781.53  1795.58  1847.91  1921.44  1965.63
                             1972.95  1988.96  2092.32  2132.70  2156.72
                             2174.98  2226.16  2279.90  2376.54  2386.00
                             4456.61  4595.20  4614.03  4618.19  4632.34
                             4646.79  4670.34  4684.56  4796.73

 Zero-point correction=                           0.182517 (Hartree/Particle)
 Thermal correction to Energy=                    0.196133
 Thermal correction to Enthalpy=                  0.197077
 Thermal correction to Gibbs Free Energy=         0.140421
 Sum of electronic and zero-point Energies=          -1115.881922
 Sum of electronic and thermal Energies=             -1115.868306
 Sum of electronic and thermal Enthalpies=           -1115.867362
 Sum of electronic and thermal Free Energies=        -1115.924017

                     E (Thermal)             CV                S
                      KCal/Mol        Cal/Mol-Kelvin    Cal/Mol-Kelvin
 Total                  123.075             51.906            119.241
 Electronic               0.000              0.000              0.000
 Translational            0.889              2.981             42.291
 Rotational               0.889              2.981             32.837
 Vibrational            121.298             45.944             44.114
 Vibration     1          0.594              1.983              5.731
 Vibration     2          0.594              1.982              5.416
 Vibration     3          0.599              1.966              4.011
 Vibration     4          0.601              1.958              3.725
 Vibration     5          0.603              1.951              3.518
 Vibration     6          0.618              1.904              2.692
 Vibration     7          0.649              1.805              1.929
 Vibration     8          0.661              1.769              1.756
 Vibration     9          0.672              1.736              1.622
 Vibration    10          0.688              1.687              1.457
 Vibration    11          0.697              1.661              1.381
 Vibration    12          0.726              1.578              1.172
 Vibration    13          0.770              1.461              0.947
 Vibration    14          0.780              1.433              0.902
 Vibration    15          0.787              1.415              0.873
 Vibration    16          0.824              1.323              0.746
 Vibration    17          0.844              1.275              0.687
 Vibration    18          0.882              1.191              0.594
 Vibration    19          0.910              1.129              0.534

 Optimization completed.
    -- Stationary point found.
 Normal termination of Gaussian 16 at Thu Sep 24 15:10:10 2020.

 ----------------------------------------------------------------------
 #p b3lyp/6-31G(d) scrf=(iefpcm,read,solvent=water) geom=allcheck guess
 =read
 ----------------------------------------------------------------------

 Structure from the checkpoint file:  "SM44_m1.a.1.pdb.xyz.mst.a.w.chk"
 -------------------
 SM44_m1.a.1.pdb.xyz
 -------------------
 Charge = -1 Multiplicity = 1

 SCF Done:  E(RB3LYP) =  -1116.06450959     A.U. after    7 cycles
 Normal termination of Gaussian 16 at Thu Sep 24 15:10:36 2020.

 -----------------------------
 #p B3LYP/6-31G* geom=allcheck
 -----------------------------

 Structure from the checkpoint file:  "SM44_m1.a.1.pdb.xyz.mst.a.w.chk"
 -------------------
 SM44_m1.a.1.pdb.xyz
 -------------------
 Charge = -1 Multiplicity = 1

 SCF Done:  E(RB3LYP) =  -1115.96012334     A.U. after   15 cycles
 Normal termination of Gaussian 16 at Thu Sep 24 15:11:04 2020.
 Gaussian 16:  ES64L-G16RevB.01 20-Dec-2017

 ----------------------------------------------------------------------
 #p mp2/aug-cc-pVDZ scf=(MaxCycle=2000,NoVarAcc,NoIncFock) maxdisk=120G
 B geom=allcheck
 ----------------------------------------------------------------------

 Structure from the checkpoint file:  "SM44_m1.a.1.pdb.xyz.mst.a.w.chk"
 -------------------
 SM44_m1.a.1.pdb.xyz
 -------------------
 Charge = -1 Multiplicity = 1

                         Standard orientation:
 ---------------------------------------------------------------------
 Center     Atomic      Atomic             Coordinates (Angstroms)
 Number     Number       Type             X           Y           Z
 ---------------------------------------------------------------------
      1          8           0        3.529404   -0.878753   -1.250105
      2         16           0        3.516687    0.143267   -0.162706
      3          7           0        2.163344    0.994904   -0.057873
      4          6           0        0.950484    0.343853   -0.007327
      5          7           0        0.730933   -0.999816    0.205414
      6          7           0       -0.562650   -1.240003    0.224356
      7          6           0       -0.297152    0.946399   -0.122574
      8          7           0       -1.195111   -0.068070    0.027085
      9          6           0       -2.614109   -0.001704    0.006789
     10          6           0       -3.252184    1.225314    0.210719
     11          6           0       -4.644853    1.286104    0.183379
     12          6           0       -5.399205    0.132083   -0.034534
     13          6           0       -4.750936   -1.089927   -0.231450
     14          6           0       -3.359491   -1.163825   -0.218721
     15          6           0        3.735325   -0.780185    1.373664
     16          8           0        4.631759    1.125242   -0.217507
     17          1           0       -0.589706    1.964150   -0.311235
     18          1           0       -2.668112    2.117487    0.398514
     19          1           0       -5.137340    2.239107    0.341013
     20          1           0       -6.482366    0.183928   -0.051596
     21          1           0       -5.328575   -1.991448   -0.405301
     22          1           0       -2.846687   -2.102427   -0.382041
     23          1           0        2.884473   -1.450218    1.492472
     24          1           0        3.784361   -0.074600    2.203558
     25          1           0        4.664769   -1.347941    1.306282
 ---------------------------------------------------------------------

 SCF Done:  E(RHF) =  -1111.08725423     A.U. after   17 cycles
 E2 =    -0.2492909141D+01 EUMP2 =    -0.11135801633671D+04

 The electronic state is 1-A.
 Alpha  occ. eigenvalues --  -92.03270 -20.36627 -20.36546 -15.55541 -15.52777
 Alpha  occ. eigenvalues --  -15.47241 -15.37763 -11.21869 -11.17865 -11.17698
 Alpha  occ. eigenvalues --  -11.17143 -11.17085 -11.16975 -11.16687 -11.14289
 Alpha  occ. eigenvalues --  -11.11707  -9.00004  -6.68551  -6.68487  -6.68428
 Alpha  occ. eigenvalues --   -1.31857  -1.25779  -1.13438  -1.12705  -1.06806
 Alpha  occ. eigenvalues --   -1.03901  -0.95464  -0.94349  -0.92056  -0.85990
 Alpha  occ. eigenvalues --   -0.78890  -0.76875  -0.71148  -0.69876  -0.66106
 Alpha  occ. eigenvalues --   -0.62018  -0.58799  -0.56016  -0.55334  -0.53227
 Alpha  occ. eigenvalues --   -0.52040  -0.51953  -0.50523  -0.48636  -0.47063
 Alpha  occ. eigenvalues --   -0.44824  -0.44221  -0.43635  -0.43143  -0.42637
 Alpha  occ. eigenvalues --   -0.39654  -0.35089  -0.33031  -0.32509  -0.30638
 Alpha  occ. eigenvalues --   -0.28874  -0.28731  -0.27161  -0.26946  -0.24439
 Alpha  occ. eigenvalues --   -0.23639  -0.15069
 Alpha virt. eigenvalues --    0.08730   0.09720   0.10811   0.12735   0.13193
 Alpha virt. eigenvalues --    0.13770   0.14543   0.15242   0.16473   0.17075
 Alpha virt. eigenvalues --    0.17497   0.17910   0.18667   0.19483   0.19795

 Mulliken charges:
               1
     1  O   -1.279090
     2  S    2.733835
     3  N   -1.318274
     4  C    0.106564
     5  N   -0.699469
     6  N   -0.230634
     7  C    1.384919
     8  N   -0.641517
     9  C    0.927511
    10  C    0.051193
    11  C    0.717477
    12  C    0.606802
    13  C    0.638182
    14  C    0.397615
    15  C    0.055878
    16  O   -1.230374
    17  H   -0.549308
    18  H   -0.649392
    19  H   -0.457481
    20  H   -0.463115
    21  H   -0.450384
    22  H   -0.534857
    23  H   -0.037764
    24  H   -0.011659
    25  H   -0.066660
 Sum of Mulliken charges =  -1.00000

 Dipole moment (field-independent basis, Debye):
    X=            -14.3826    Y=             -0.1922    Z=              3.3912  Tot=             14.7782
 Quadrupole moment (field-independent basis, Debye-Ang):
   XX=           -161.4896   YY=           -110.3264   ZZ=           -111.2673
   XY=            -11.6674   XZ=             15.6822   YZ=             -0.9202

 Normal termination of Gaussian 16 at Thu Sep 24 15:24:34 2020.
