 Gaussian 16, Revision B.01,

 ----------------------------------------------------------------------
 #p b3lyp/6-31G(d) opt freq NoSymm scf=(MaxCycle=2000,NoVarAcc,NoIncFoc
 k) scrf=(iefpcm,read,solvent=water)
 ----------------------------------------------------------------------

 -------------------
 SM44_m1.a.2.pdb.xyz
 -------------------
 Symbolic Z-matrix:
 Charge = -1 Multiplicity = 1

 SCF Done:  E(RB3LYP) =  -1116.06477194     A.U. after   13 cycles
 SCF Done:  E(RB3LYP) =  -1116.06467531     A.U. after   10 cycles
 SCF Done:  E(RB3LYP) =  -1116.06457464     A.U. after   10 cycles
 SCF Done:  E(RB3LYP) =  -1116.06476822     A.U. after   10 cycles
 SCF Done:  E(RB3LYP) =  -1116.06477348     A.U. after    9 cycles
 SCF Done:  E(RB3LYP) =  -1116.06462112     A.U. after   11 cycles
 SCF Done:  E(RB3LYP) =  -1116.06453668     A.U. after   11 cycles
 SCF Done:  E(RB3LYP) =  -1116.06476560     A.U. after   11 cycles
 SCF Done:  E(RB3LYP) =  -1116.06477347     A.U. after    9 cycles
 SCF Done:  E(RB3LYP) =  -1116.06441467     A.U. after   11 cycles
 SCF Done:  E(RB3LYP) =  -1116.06470010     A.U. after    4 cycles
 SCF Done:  E(RB3LYP) =  -1116.06470007     A.U. after    3 cycles
 SCF Done:  E(RB3LYP) =  -1116.06470005     A.U. after    3 cycles
 SCF Done:  E(RB3LYP) =  -1116.06437963     A.U. after   11 cycles
 SCF Done:  E(RB3LYP) =  -1116.06450627     A.U. after   10 cycles
 SCF Done:  E(RB3LYP) =  -1116.06450576     A.U. after    7 cycles
 Optimization completed.
    -- Stationary point found.
 Normal termination of Gaussian 16 at Thu Sep 24 15:16:51 2020.

 --------------------------------------------------------------------
 #P Geom=AllCheck Guess=TCheck SCRF=Check GenChk RB3LYP/6-31G(d) Freq
 --------------------------------------------------------------------

 Structure from the checkpoint file:  "SM44_m1.a.2.pdb.xyz.mst.a.w.chk"
 -------------------
 SM44_m1.a.2.pdb.xyz
 -------------------
 Charge = -1 Multiplicity = 1

 SCF Done:  E(RB3LYP) =  -1116.06450576     A.U. after    1 cycles

  Exact polarizability: 309.120   6.588 188.334   2.609  25.979 101.907
 Approx polarizability: 320.569   5.994 242.113   3.865  37.092 122.305

                      1                      2                      3
                      A                      A                      A
 Frequencies --     39.9651                40.4716                79.6392
 Red. masses --      6.5263                 4.3229                 6.3386
 Frc consts  --      0.0061                 0.0042                 0.0237
 IR Inten    --      2.4318                 4.2651                 0.7473

                      4                      5                      6
                      A                      A                      A
 Frequencies --     91.3536                95.0141               150.9704
 Red. masses --      5.7403                 5.9612                 6.2594
 Frc consts  --      0.0282                 0.0317                 0.0841
 IR Inten    --     15.8643                 7.2399                 0.3256

                      7                      8                      9
                      A                      A                      A
 Frequencies --    225.0219               249.9856               268.4627
 Red. masses --      4.5823                 1.1522                 5.2101
 Frc consts  --      0.1367                 0.0424                 0.2212
 IR Inten    --      1.3480                 2.2072                10.1743

                     10                     11                     12
                      A                      A                      A
 Frequencies --    294.6555               307.5278               348.6332
 Red. masses --      4.6146                 4.9291                 5.2789
 Frc consts  --      0.2361                 0.2747                 0.3780
 IR Inten    --      5.7312                 2.4127                 1.4880

                     13                     14                     15
                      A                      A                      A
 Frequencies --    402.0279               417.6188               426.4394
 Red. masses --      7.8419                 3.3140                 7.1492
 Frc consts  --      0.7468                 0.3405                 0.7660
 IR Inten    --      7.1809                 0.8055                 1.6181

                     16                     17                     18
                      A                      A                      A
 Frequencies --    466.6849               488.3507               526.9497
 Red. masses --      6.5276                 8.3436                 3.9162
 Frc consts  --      0.8376                 1.1724                 0.6407
 IR Inten    --     65.5007                82.7907                27.6465

                     19                     20                     21
                      A                      A                      A
 Frequencies --    555.5629               628.6175               668.8272
 Red. masses --      5.4825                 6.4275                 3.4326
 Frc consts  --      0.9970                 1.4965                 0.9047
 IR Inten    --     42.0668                 0.1361                 2.6798

                     22                     23                     24
                      A                      A                      A
 Frequencies --    687.8110               692.2551               705.2901
 Red. masses --      5.8958                 2.3113                 2.3366
 Frc consts  --      1.6433                 0.6526                 0.6848
 IR Inten    --     23.9503                 7.0290                21.7420

                     25                     26                     27
                      A                      A                      A
 Frequencies --    710.7937               736.3374               768.5141
 Red. masses --      6.5819                 3.1761                 7.9172
 Frc consts  --      1.9592                 1.0146                 2.7550
 IR Inten    --     33.9441                79.0285               164.1486

                     28                     29                     30
                      A                      A                      A
 Frequencies --    778.1641               856.6547               928.2866
 Red. masses --      1.6684                 1.2490                 6.7544
 Frc consts  --      0.5952                 0.5400                 3.4292
 IR Inten    --     78.3007                 0.3315               128.8452

                     31                     32                     33
                      A                      A                      A
 Frequencies --    932.2997               982.3757               991.7898
 Red. masses --      1.3975                 1.3373                 1.5435
 Frc consts  --      0.7157                 0.7604                 0.8945
 IR Inten    --      8.0448                 0.0583                89.4346

                     34                     35                     36
                      A                      A                      A
 Frequencies --    997.8289               999.7247              1008.7869
 Red. masses --      2.8144                 2.0373                 1.2580
 Frc consts  --      1.6510                 1.1997                 0.7543
 IR Inten    --     49.8652                10.7929                 0.3196

                     37                     38                     39
                      A                      A                      A
 Frequencies --   1018.3914              1051.7068              1061.5487
 Red. masses --      6.0475                 2.9962                 3.1562
 Frc consts  --      3.6953                 1.9526                 2.0955
 IR Inten    --      2.1926                 7.7406                47.1381

                     40                     41                     42
                      A                      A                      A
 Frequencies --   1073.9928              1095.5256              1113.3746
 Red. masses --      2.8051                 4.7412                 1.7384
 Frc consts  --      1.9063                 3.3526                 1.2697
 IR Inten    --    250.6748               637.1060                59.5433

                     43                     44                     45
                      A                      A                      A
 Frequencies --   1187.6141              1204.7287              1207.6346
 Red. masses --      1.0938                 1.4398                 4.8550
 Frc consts  --      0.9090                 1.2312                 4.1716
 IR Inten    --      0.4251                81.8620               367.1725

                     46                     47                     48
                      A                      A                      A
 Frequencies --   1237.8775              1248.0984              1285.6464
 Red. masses --      4.6587                 5.1554                 2.7045
 Frc consts  --      4.2060                 4.7316                 2.6338
 IR Inten    --     75.9907                17.8123               237.0092

                     49                     50                     51
                      A                      A                      A
 Frequencies --   1337.3102              1368.2797              1371.2694
 Red. masses --      3.6991                 2.9337                 1.3255
 Frc consts  --      3.8977                 3.2361                 1.4685
 IR Inten    --    183.8806                34.2397                53.7711

                     52                     53                     54
                      A                      A                      A
 Frequencies --   1382.7689              1453.7249              1480.9218
 Red. masses --      2.3381                 4.4443                 1.0529
 Frc consts  --      2.6340                 5.5337                 1.3605
 IR Inten    --    291.8075               199.7775                 2.1906

                     55                     56                     57
                      A                      A                      A
 Frequencies --   1498.3695              1512.4866              1548.4796
 Red. masses --      1.0523                 2.5135                 2.6484
 Frc consts  --      1.3919                 3.3878                 3.7415
 IR Inten    --      4.8356                24.9988               375.8402

                     58                     59                     60
                      A                      A                      A
 Frequencies --   1585.4736              1652.8666              1659.6553
 Red. masses --      6.4691                 6.3304                 5.6469
 Frc consts  --      9.5810                10.1896                 9.1642
 IR Inten    --    420.3014                 6.8098                45.5812

                     61                     62                     63
                      A                      A                      A
 Frequencies --   3097.9889              3194.0123              3207.8451
 Red. masses --      1.0303                 1.1067                 1.1066
 Frc consts  --      5.8260                 6.6519                 6.7094
 IR Inten    --      9.5386                 8.9582                 2.1036

                     64                     65                     66
                      A                      A                      A
 Frequencies --   3210.5055              3219.9878              3229.9596
 Red. masses --      1.0864                 1.0898                 1.0937
 Frc consts  --      6.5976                 6.6574                 6.7224
 IR Inten    --      2.1620                19.7528                46.0593

                     67                     68                     69
                      A                      A                      A
 Frequencies --   3240.1017              3257.1724              3338.6792
 Red. masses --      1.0954                 1.0926                 1.0981
 Frc consts  --      6.7754                 6.8299                 7.2117
 IR Inten    --     15.0551                 2.7729                 6.0082

 - Thermochemistry -
 -------------------
 Temperature   298.150 Kelvin.  Pressure   1.00000 Atm.
 Atom     1 has atomic number  8 and mass  15.99491

 Molecular mass:   237.04462 amu.
 Principal axes and moments of inertia in atomic units:
                           1         2         3
     Eigenvalues --   921.753659490.659629966.23476
           X            0.99949  -0.01124  -0.02990
           Y            0.00400   0.97273  -0.23191
           Z            0.03169   0.23167   0.97228
 This molecule is an asymmetric top.
 Rotational symmetry number  1.
 Warning -- assumption of classical behavior for rotation
           may cause significant error
 Rotational temperatures (Kelvin)      0.09397     0.00913     0.00869
 Rotational constants (GHZ):           1.95794     0.19016     0.18109
 Zero-point vibrational energy     479605.0 (Joules/Mol)
                                  114.62834 (Kcal/Mol)
 Warning -- explicit consideration of  19 degrees of freedom as
           vibrations may cause significant error
 Vibrational temperatures:     57.50    58.23   114.58   131.44   136.70
          (Kelvin)            217.21   323.76   359.67   386.26   423.94
                              442.46   501.61   578.43   600.86   613.55
                              671.46   702.63   758.16   799.33   904.44
                              962.29   989.61   996.00  1014.76  1022.67
                             1059.43  1105.72  1119.60  1232.54  1335.60
                             1341.37  1413.42  1426.96  1435.65  1438.38
                             1451.42  1465.24  1513.17  1527.33  1545.24
                             1576.22  1601.90  1708.71  1733.34  1737.52
                             1781.03  1795.74  1849.76  1924.09  1968.65
                             1972.95  1989.50  2091.59  2130.72  2155.82
                             2176.13  2227.92  2281.14  2378.11  2387.87
                             4457.32  4595.47  4615.37  4619.20  4632.84
                             4647.19  4661.78  4686.34  4803.61

 Zero-point correction=                           0.182672 (Hartree/Particle)
 Thermal correction to Energy=                    0.196226
 Thermal correction to Enthalpy=                  0.197170
 Thermal correction to Gibbs Free Energy=         0.140958
 Sum of electronic and zero-point Energies=          -1115.881834
 Sum of electronic and thermal Energies=             -1115.868280
 Sum of electronic and thermal Enthalpies=           -1115.867335
 Sum of electronic and thermal Free Energies=        -1115.923548

                     E (Thermal)             CV                S
                      KCal/Mol        Cal/Mol-Kelvin    Cal/Mol-Kelvin
 Total                  123.134             51.848            118.309
 Electronic               0.000              0.000              0.000
 Translational            0.889              2.981             42.291
 Rotational               0.889              2.981             32.833
 Vibrational            121.356             45.886             43.185
 Vibration     1          0.594              1.981              5.261
 Vibration     2          0.594              1.981              5.236
 Vibration     3          0.600              1.963              3.900
 Vibration     4          0.602              1.955              3.631
 Vibration     5          0.603              1.953              3.554
 Vibration     6          0.618              1.902              2.660
 Vibration     7          0.650              1.803              1.918
 Vibration     8          0.663              1.763              1.731
 Vibration     9          0.673              1.731              1.606
 Vibration    10          0.689              1.684              1.447
 Vibration    11          0.697              1.659              1.376
 Vibration    12          0.726              1.578              1.172
 Vibration    13          0.768              1.466              0.955
 Vibration    14          0.781              1.432              0.900
 Vibration    15          0.788              1.413              0.870
 Vibration    16          0.824              1.324              0.747
 Vibration    17          0.844              1.276              0.688
 Vibration    18          0.882              1.190              0.594
 Vibration    19          0.911              1.128              0.533

 Optimization completed.
    -- Stationary point found.
 Normal termination of Gaussian 16 at Thu Sep 24 15:21:45 2020.

 ----------------------------------------------------------------------
 #p b3lyp/6-31G(d) scrf=(iefpcm,read,solvent=water) geom=allcheck guess
 =read
 ----------------------------------------------------------------------

 Structure from the checkpoint file:  "SM44_m1.a.2.pdb.xyz.mst.a.w.chk"
 -------------------
 SM44_m1.a.2.pdb.xyz
 -------------------
 Charge = -1 Multiplicity = 1

 SCF Done:  E(RB3LYP) =  -1116.06453498     A.U. after    7 cycles
 Normal termination of Gaussian 16 at Thu Sep 24 15:22:12 2020.

 -----------------------------
 #p B3LYP/6-31G* geom=allcheck
 -----------------------------

 Structure from the checkpoint file:  "SM44_m1.a.2.pdb.xyz.mst.a.w.chk"
 -------------------
 SM44_m1.a.2.pdb.xyz
 -------------------
 Charge = -1 Multiplicity = 1

 SCF Done:  E(RB3LYP) =  -1115.95984711     A.U. after   15 cycles
 Normal termination of Gaussian 16 at Thu Sep 24 15:22:42 2020.
 Gaussian 16:  ES64L-G16RevB.01 20-Dec-2017

 ----------------------------------------------------------------------
 #p mp2/aug-cc-pVDZ scf=(MaxCycle=2000,NoVarAcc,NoIncFock) maxdisk=120G
 B geom=allcheck
 ----------------------------------------------------------------------

 Structure from the checkpoint file:  "SM44_m1.a.2.pdb.xyz.mst.a.w.chk"
 -------------------
 SM44_m1.a.2.pdb.xyz
 -------------------
 Charge = -1 Multiplicity = 1

                         Standard orientation:
 ---------------------------------------------------------------------
 Center     Atomic      Atomic             Coordinates (Angstroms)
 Number     Number       Type             X           Y           Z
 ---------------------------------------------------------------------
      1          8           0        3.553536   -0.952387   -1.177697
      2         16           0        3.517621    0.132037   -0.153943
      3          7           0        2.166308    0.990969   -0.130562
      4          6           0        0.952587    0.345942   -0.052627
      5          7           0        0.732097   -0.994297    0.179628
      6          7           0       -0.561783   -1.230394    0.215310
      7          6           0       -0.294500    0.950544   -0.164069
      8          7           0       -1.194000   -0.060152    0.007607
      9          6           0       -2.613766    0.004177    0.001185
     10          6           0       -3.254980    1.228321    0.209868
     11          6           0       -4.648363    1.281509    0.195083
     12          6           0       -5.398698    0.123226   -0.014040
     13          6           0       -4.746040   -1.095982   -0.214451
     14          6           0       -3.354758   -1.161535   -0.214325
     15          6           0        3.699325   -0.696924    1.437798
     16          8           0        4.635467    1.107890   -0.244187
     17          1           0       -0.586470    1.965865   -0.363877
     18          1           0       -2.673955    2.124519    0.392148
     19          1           0       -5.144602    2.231973    0.356223
     20          1           0       -6.482097    0.169600   -0.021120
     21          1           0       -5.320056   -2.001059   -0.381110
     22          1           0       -2.836304   -2.096638   -0.379352
     23          1           0        2.844955   -1.358286    1.578023
     24          1           0        3.732864    0.057648    2.224058
     25          1           0        4.628508   -1.268772    1.422745
 ---------------------------------------------------------------------

 SCF Done:  E(RHF) =  -1111.08708907     A.U. after   17 cycles
 E2 =    -0.2492762417D+01 EUMP2 =    -0.11135798514885D+04

 The electronic state is 1-A.
 Alpha  occ. eigenvalues --  -92.03242 -20.36570 -20.36503 -15.55519 -15.52754
 Alpha  occ. eigenvalues --  -15.47197 -15.37758 -11.21845 -11.17868 -11.17688
 Alpha  occ. eigenvalues --  -11.17163 -11.17092 -11.16966 -11.16654 -11.14271
 Alpha  occ. eigenvalues --  -11.11743  -8.99984  -6.68530  -6.68467  -6.68408
 Alpha  occ. eigenvalues --   -1.31827  -1.25793  -1.13412  -1.12689  -1.06820
 Alpha  occ. eigenvalues --   -1.03932  -0.95471  -0.94357  -0.92045  -0.86059
 Alpha  occ. eigenvalues --   -0.78866  -0.76875  -0.71153  -0.69873  -0.66085
 Alpha  occ. eigenvalues --   -0.62014  -0.58790  -0.56041  -0.55321  -0.53218
 Alpha  occ. eigenvalues --   -0.52065  -0.51907  -0.50529  -0.48663  -0.47079
 Alpha  occ. eigenvalues --   -0.44836  -0.44235  -0.43645  -0.43150  -0.42623
 Alpha  occ. eigenvalues --   -0.39651  -0.35014  -0.33033  -0.32505  -0.30589
 Alpha  occ. eigenvalues --   -0.28970  -0.28684  -0.27158  -0.26956  -0.24444
 Alpha  occ. eigenvalues --   -0.23640  -0.15026
 Alpha virt. eigenvalues --    0.08728   0.09715   0.10808   0.12703   0.13204
 Alpha virt. eigenvalues --    0.13767   0.14488   0.15245   0.16463   0.17084
 Alpha virt. eigenvalues --    0.17495   0.17896   0.18655   0.19492   0.19800

 Mulliken charges:
               1
     1  O   -1.280937
     2  S    2.730145
     3  N   -1.309885
     4  C    0.090409
     5  N   -0.692728
     6  N   -0.238184
     7  C    1.391196
     8  N   -0.634845
     9  C    0.928360
    10  C    0.060844
    11  C    0.714737
    12  C    0.606496
    13  C    0.635088
    14  C    0.392094
    15  C    0.052678
    16  O   -1.231642
    17  H   -0.547647
    18  H   -0.646137
    19  H   -0.457629
    20  H   -0.463265
    21  H   -0.448842
    22  H   -0.534641
    23  H   -0.039430
    24  H   -0.011360
    25  H   -0.064873
 Sum of Mulliken charges =  -1.00000

 Dipole moment (field-independent basis, Debye):
    X=            -14.4614    Y=              0.0282    Z=              3.5080  Tot=             14.8808
 Quadrupole moment (field-independent basis, Debye-Ang):
   XX=           -162.1500   YY=           -110.6077   ZZ=           -110.7010
   XY=            -10.6472   XZ=             15.9977   YZ=             -0.7217

 Normal termination of Gaussian 16 at Thu Sep 24 15:48:02 2020.
