 Gaussian 16, Revision B.01,

 ----------------------------------------------------------------------
 #p b3lyp/6-31G(d) opt freq NoSymm scf=(MaxCycle=2000,NoVarAcc,NoIncFoc
 k) scrf=(iefpcm,read,solvent=water)
 ----------------------------------------------------------------------

 -------------------
 SM44_m1.a.7.pdb.xyz
 -------------------
 Symbolic Z-matrix:
 Charge = -1 Multiplicity = 1

 SCF Done:  E(RB3LYP) =  -1116.06477155     A.U. after   13 cycles
 SCF Done:  E(RB3LYP) =  -1116.06466814     A.U. after   10 cycles
 SCF Done:  E(RB3LYP) =  -1116.06458163     A.U. after   10 cycles
 SCF Done:  E(RB3LYP) =  -1116.06476766     A.U. after   10 cycles
 SCF Done:  E(RB3LYP) =  -1116.06477302     A.U. after    9 cycles
 SCF Done:  E(RB3LYP) =  -1116.06460236     A.U. after   11 cycles
 SCF Done:  E(RB3LYP) =  -1116.06453059     A.U. after   11 cycles
 SCF Done:  E(RB3LYP) =  -1116.06476427     A.U. after   11 cycles
 SCF Done:  E(RB3LYP) =  -1116.06477301     A.U. after    9 cycles
 SCF Done:  E(RB3LYP) =  -1116.06440712     A.U. after   11 cycles
 SCF Done:  E(RB3LYP) =  -1116.06472311     A.U. after   11 cycles
 SCF Done:  E(RB3LYP) =  -1116.06472292     A.U. after    5 cycles
 SCF Done:  E(RB3LYP) =  -1116.06466778     A.U. after   10 cycles
 SCF Done:  E(RB3LYP) =  -1116.06452819     A.U. after   11 cycles
 SCF Done:  E(RB3LYP) =  -1116.06450395     A.U. after    8 cycles
 SCF Done:  E(RB3LYP) =  -1116.06450940     A.U. after    7 cycles
 Optimization completed.
    -- Stationary point found.
 Normal termination of Gaussian 16 at Thu Sep 24 15:20:11 2020.

 --------------------------------------------------------------------
 #P Geom=AllCheck Guess=TCheck SCRF=Check GenChk RB3LYP/6-31G(d) Freq
 --------------------------------------------------------------------

 Structure from the checkpoint file:  "SM44_m1.a.7.pdb.xyz.mst.a.w.chk"
 -------------------
 SM44_m1.a.7.pdb.xyz
 -------------------
 Charge = -1 Multiplicity = 1

 SCF Done:  E(RB3LYP) =  -1116.06450940     A.U. after    1 cycles

  Exact polarizability: 308.988   6.809 187.634   3.090  27.090 102.677
 Approx polarizability: 320.447   6.064 241.168   4.323  38.601 123.325

                      1                      2                      3
                      A                      A                      A
 Frequencies --     39.2768                41.4248                79.3626
 Red. masses --      5.8137                 4.6686                 6.3259
 Frc consts  --      0.0053                 0.0047                 0.0235
 IR Inten    --      1.7346                 4.9947                 0.7452

                      4                      5                      6
                      A                      A                      A
 Frequencies --     91.8524                94.5226               150.9171
 Red. masses --      5.7070                 6.0041                 6.2594
 Frc consts  --      0.0284                 0.0316                 0.0840
 IR Inten    --     15.9020                 7.1491                 0.3428

                      7                      8                      9
                      A                      A                      A
 Frequencies --    224.9248               249.7539               268.1935
 Red. masses --      4.5313                 1.1643                 5.1316
 Frc consts  --      0.1351                 0.0428                 0.2175
 IR Inten    --      1.3562                 2.2623                10.1530

                     10                     11                     12
                      A                      A                      A
 Frequencies --    294.8047               307.4373               348.7035
 Red. masses --      4.5883                 4.9133                 5.2775
 Frc consts  --      0.2349                 0.2736                 0.3781
 IR Inten    --      5.7145                 2.4315                 1.4364

                     13                     14                     15
                      A                      A                      A
 Frequencies --    402.0545               417.6476               426.3371
 Red. masses --      7.8133                 3.2981                 7.2183
 Frc consts  --      0.7441                 0.3389                 0.7730
 IR Inten    --      7.1993                 0.7845                 1.5958

                     16                     17                     18
                      A                      A                      A
 Frequencies --    466.6677               488.3888               526.8417
 Red. masses --      6.5225                 8.3401                 3.9182
 Frc consts  --      0.8369                 1.1721                 0.6408
 IR Inten    --     65.1780                82.5880                27.6778

                     19                     20                     21
                      A                      A                      A
 Frequencies --    555.7894               628.6036               669.1085
 Red. masses --      5.4934                 6.4264                 3.5165
 Frc consts  --      0.9998                 1.4961                 0.9276
 IR Inten    --     42.5064                 0.1287                 2.6709

                     22                     23                     24
                      A                      A                      A
 Frequencies --    687.9000               692.4043               705.1721
 Red. masses --      6.0921                 2.2657                 2.3384
 Frc consts  --      1.6985                 0.6400                 0.6851
 IR Inten    --     24.0174                 7.0483                21.7502

                     25                     26                     27
                      A                      A                      A
 Frequencies --    710.7565               736.3925               768.2712
 Red. masses --      6.5819                 3.1300                 7.9616
 Frc consts  --      1.9590                 1.0000                 2.7687
 IR Inten    --     34.1442                78.6371               164.9021

                     28                     29                     30
                      A                      A                      A
 Frequencies --    778.1335               856.4619               928.0657
 Red. masses --      1.6668                 1.2491                 6.6983
 Frc consts  --      0.5946                 0.5398                 3.3992
 IR Inten    --     77.8378                 0.3268               127.2904

                     31                     32                     33
                      A                      A                      A
 Frequencies --    932.0435               982.3033               991.5495
 Red. masses --      1.3980                 1.3376                 1.5454
 Frc consts  --      0.7155                 0.7605                 0.8952
 IR Inten    --      8.1147                 0.0535                91.1622

                     34                     35                     36
                      A                      A                      A
 Frequencies --    997.6132               999.3629              1008.6389
 Red. masses --      2.2293                 2.5159                 1.2581
 Frc consts  --      1.3072                 1.4804                 0.7541
 IR Inten    --     47.6400                12.5159                 0.3019

                     37                     38                     39
                      A                      A                      A
 Frequencies --   1018.3840              1051.5845              1061.7098
 Red. masses --      6.0527                 2.9799                 3.1892
 Frc consts  --      3.6985                 1.9415                 2.1181
 IR Inten    --      2.1973                 7.5014                48.5572

                     40                     41                     42
                      A                      A                      A
 Frequencies --   1074.1731              1095.4213              1113.1909
 Red. masses --      2.7913                 4.7111                 1.7429
 Frc consts  --      1.8976                 3.3307                 1.2725
 IR Inten    --    246.7596               638.3838                61.3562

                     43                     44                     45
                      A                      A                      A
 Frequencies --   1187.4461              1204.4316              1207.5813
 Red. masses --      1.0945                 1.4020                 5.3565
 Frc consts  --      0.9093                 1.1983                 4.6022
 IR Inten    --      0.3818                70.5769               377.9286

                     46                     47                     48
                      A                      A                      A
 Frequencies --   1237.9381              1248.0442              1285.8373
 Red. masses --      4.6800                 5.1764                 2.6838
 Frc consts  --      4.2257                 4.7505                 2.6144
 IR Inten    --     76.9826                18.0027               234.0986

                     49                     50                     51
                      A                      A                      A
 Frequencies --   1337.2874              1368.1061              1370.9150
 Red. masses --      3.6836                 2.8526                 1.3327
 Frc consts  --      3.8812                 3.1458                 1.4757
 IR Inten    --    183.7470                35.9265                47.6889

                     52                     53                     54
                      A                      A                      A
 Frequencies --   1382.6670              1453.7003              1480.8028
 Red. masses --      2.3777                 4.4507                 1.0530
 Frc consts  --      2.6781                 5.5416                 1.3605
 IR Inten    --    297.0829               200.2198                 2.1916

                     55                     56                     57
                      A                      A                      A
 Frequencies --   1498.0579              1512.3856              1548.4651
 Red. masses --      1.0523                 2.5129                 2.6479
 Frc consts  --      1.3913                 3.3864                 3.7408
 IR Inten    --      4.8382                24.9591               374.8844

                     58                     59                     60
                      A                      A                      A
 Frequencies --   1585.4718              1652.8235              1659.6398
 Red. masses --      6.4639                 6.3310                 5.6506
 Frc consts  --      9.5733                10.1900                 9.1701
 IR Inten    --    420.6649                 6.7580                45.4766

                     61                     62                     63
                      A                      A                      A
 Frequencies --   3097.8897              3193.9638              3207.5384
 Red. masses --      1.0303                 1.1067                 1.1067
 Frc consts  --      5.8256                 6.6517                 6.7084
 IR Inten    --      9.4268                 8.9435                 2.1350

                     64                     65                     66
                      A                      A                      A
 Frequencies --   3210.5385              3219.9252              3229.8518
 Red. masses --      1.0863                 1.0898                 1.0937
 Frc consts  --      6.5973                 6.6571                 6.7220
 IR Inten    --      1.8348                19.8685                46.1785

                     67                     68                     69
                      A                      A                      A
 Frequencies --   3239.8526              3256.6206              3338.5724
 Red. masses --      1.0954                 1.0927                 1.0981
 Frc consts  --      6.7744                 6.8281                 7.2112
 IR Inten    --     15.0625                 2.8005                 6.0076

 - Thermochemistry -
 -------------------
 Temperature   298.150 Kelvin.  Pressure   1.00000 Atm.
 Atom     1 has atomic number  8 and mass  15.99491

 Molecular mass:   237.04462 amu.
 Principal axes and moments of inertia in atomic units:
                           1         2         3
     Eigenvalues --   921.735609491.250799966.16939
           X            0.99941  -0.01458  -0.03100
           Y            0.00654   0.96948  -0.24510
           Z            0.03363   0.24475   0.96900
 This molecule is an asymmetric top.
 Rotational symmetry number  1.
 Warning -- assumption of classical behavior for rotation
           may cause significant error
 Rotational temperatures (Kelvin)      0.09397     0.00913     0.00869
 Rotational constants (GHZ):           1.95798     0.19015     0.18109
 Zero-point vibrational energy     479573.9 (Joules/Mol)
                                  114.62092 (Kcal/Mol)
 Warning -- explicit consideration of  19 degrees of freedom as
           vibrations may cause significant error
 Vibrational temperatures:     56.51    59.60   114.19   132.16   136.00
          (Kelvin)            217.14   323.62   359.34   385.87   424.16
                              442.33   501.71   578.47   600.90   613.40
                              671.43   702.68   758.01   799.66   904.42
                              962.70   989.73   996.22  1014.59  1022.62
                             1059.50  1105.37  1119.56  1232.26  1335.28
                             1341.00  1413.32  1426.62  1435.34  1437.86
                             1451.21  1465.23  1513.00  1527.56  1545.50
                             1576.07  1601.63  1708.47  1732.91  1737.44
                             1781.12  1795.66  1850.03  1924.06  1968.40
                             1972.44  1989.35  2091.55  2130.54  2155.37
                             2175.99  2227.90  2281.14  2378.04  2387.85
                             4457.17  4595.40  4614.93  4619.25  4632.75
                             4647.04  4661.43  4685.55  4803.46

 Zero-point correction=                           0.182660 (Hartree/Particle)
 Thermal correction to Energy=                    0.196215
 Thermal correction to Enthalpy=                  0.197160
 Thermal correction to Gibbs Free Energy=         0.140948
 Sum of electronic and zero-point Energies=          -1115.881849
 Sum of electronic and thermal Energies=             -1115.868294
 Sum of electronic and thermal Enthalpies=           -1115.867350
 Sum of electronic and thermal Free Energies=        -1115.923562

                     E (Thermal)             CV                S
                      KCal/Mol        Cal/Mol-Kelvin    Cal/Mol-Kelvin
 Total                  123.127             51.851            118.308
 Electronic               0.000              0.000              0.000
 Translational            0.889              2.981             42.291
 Rotational               0.889              2.981             32.833
 Vibrational            121.350             45.889             43.184
 Vibration     1          0.594              1.981              5.295
 Vibration     2          0.594              1.981              5.190
 Vibration     3          0.600              1.963              3.907
 Vibration     4          0.602              1.955              3.620
 Vibration     5          0.603              1.953              3.564
 Vibration     6          0.618              1.902              2.661
 Vibration     7          0.650              1.803              1.919
 Vibration     8          0.663              1.763              1.732
 Vibration     9          0.673              1.732              1.608
 Vibration    10          0.689              1.683              1.446
 Vibration    11          0.697              1.660              1.376
 Vibration    12          0.726              1.578              1.172
 Vibration    13          0.768              1.466              0.955
 Vibration    14          0.781              1.432              0.900
 Vibration    15          0.788              1.413              0.871
 Vibration    16          0.824              1.324              0.747
 Vibration    17          0.844              1.276              0.688
 Vibration    18          0.882              1.191              0.594
 Vibration    19          0.911              1.127              0.532

 Optimization completed.
    -- Stationary point found.
 Normal termination of Gaussian 16 at Thu Sep 24 15:25:43 2020.

 ----------------------------------------------------------------------
 #p b3lyp/6-31G(d) scrf=(iefpcm,read,solvent=water) geom=allcheck guess
 =read
 ----------------------------------------------------------------------

 Structure from the checkpoint file:  "SM44_m1.a.7.pdb.xyz.mst.a.w.chk"
 -------------------
 SM44_m1.a.7.pdb.xyz
 -------------------
 Charge = -1 Multiplicity = 1

 SCF Done:  E(RB3LYP) =  -1116.06453276     A.U. after    7 cycles
 Normal termination of Gaussian 16 at Thu Sep 24 15:26:09 2020.

 -----------------------------
 #p B3LYP/6-31G* geom=allcheck
 -----------------------------

 Structure from the checkpoint file:  "SM44_m1.a.7.pdb.xyz.mst.a.w.chk"
 -------------------
 SM44_m1.a.7.pdb.xyz
 -------------------
 Charge = -1 Multiplicity = 1

 SCF Done:  E(RB3LYP) =  -1115.95982077     A.U. after   15 cycles
 Normal termination of Gaussian 16 at Thu Sep 24 15:26:36 2020.
 Gaussian 16:  ES64L-G16RevB.01 20-Dec-2017

 ----------------------------------------------------------------------
 #p mp2/aug-cc-pVDZ scf=(MaxCycle=2000,NoVarAcc,NoIncFock) maxdisk=120G
 B geom=allcheck
 ----------------------------------------------------------------------

 Structure from the checkpoint file:  "SM44_m1.a.7.pdb.xyz.mst.a.w.chk"
 -------------------
 SM44_m1.a.7.pdb.xyz
 -------------------
 Charge = -1 Multiplicity = 1

                         Standard orientation:
 ---------------------------------------------------------------------
 Center     Atomic      Atomic             Coordinates (Angstroms)
 Number     Number       Type             X           Y           Z
 ---------------------------------------------------------------------
      1          8           0        3.556806   -0.959579   -1.170054
      2         16           0        3.517903    0.131306   -0.153276
      3          7           0        2.166182    0.989815   -0.138385
      4          6           0        0.952536    0.345050   -0.057339
      5          7           0        0.732106   -0.994596    0.178479
      6          7           0       -0.561818   -1.230462    0.215763
      7          6           0       -0.294604    0.949478   -0.169467
      8          7           0       -1.194030   -0.060757    0.005411
      9          6           0       -2.613796    0.003917    0.000346
     10          6           0       -3.254297    1.228236    0.210247
     11          6           0       -4.647648    1.282022    0.197000
     12          6           0       -5.398637    0.124074   -0.011764
     13          6           0       -4.746702   -1.095313   -0.213344
     14          6           0       -3.355419   -1.161455   -0.214790
     15          6           0        3.696145   -0.687323    1.444220
     16          8           0        4.635652    1.106928   -0.247032
     17          1           0       -0.586862    1.964305   -0.371405
     18          1           0       -2.672478    2.123979    0.392296
     19          1           0       -5.143381    2.232603    0.359035
     20          1           0       -6.482030    0.170874   -0.017641
     21          1           0       -5.321290   -2.000076   -0.379745
     22          1           0       -2.837586   -2.096789   -0.380606
     23          1           0        2.841454   -1.347669    1.587260
     24          1           0        3.728282    0.072379    2.225592
     25          1           0        4.625247   -1.259421    1.434777
 ---------------------------------------------------------------------

 SCF Done:  E(RHF) =  -1111.08705880     A.U. after   17 cycles
 E2 =    -0.2492770999D+01 EUMP2 =    -0.11135798297991D+04

 The electronic state is 1-A.
 Alpha  occ. eigenvalues --  -92.03242 -20.36567 -20.36503 -15.55518 -15.52752
 Alpha  occ. eigenvalues --  -15.47193 -15.37759 -11.21845 -11.17870 -11.17691
 Alpha  occ. eigenvalues --  -11.17165 -11.17096 -11.16967 -11.16659 -11.14270
 Alpha  occ. eigenvalues --  -11.11745  -8.99984  -6.68530  -6.68467  -6.68408
 Alpha  occ. eigenvalues --   -1.31826  -1.25792  -1.13410  -1.12687  -1.06821
 Alpha  occ. eigenvalues --   -1.03932  -0.95472  -0.94358  -0.92046  -0.86059
 Alpha  occ. eigenvalues --   -0.78866  -0.76877  -0.71156  -0.69872  -0.66084
 Alpha  occ. eigenvalues --   -0.62014  -0.58792  -0.56047  -0.55322  -0.53216
 Alpha  occ. eigenvalues --   -0.52067  -0.51903  -0.50528  -0.48664  -0.47078
 Alpha  occ. eigenvalues --   -0.44838  -0.44236  -0.43646  -0.43151  -0.42622
 Alpha  occ. eigenvalues --   -0.39651  -0.35005  -0.33033  -0.32504  -0.30586
 Alpha  occ. eigenvalues --   -0.28979  -0.28680  -0.27158  -0.26958  -0.24443
 Alpha  occ. eigenvalues --   -0.23642  -0.15024
 Alpha virt. eigenvalues --    0.08727   0.09714   0.10807   0.12703   0.13205
 Alpha virt. eigenvalues --    0.13764   0.14477   0.15247   0.16462   0.17085
 Alpha virt. eigenvalues --    0.17492   0.17893   0.18654   0.19492   0.19802

 Mulliken charges:
               1
     1  O   -1.280960
     2  S    2.730098
     3  N   -1.309388
     4  C    0.090759
     5  N   -0.691624
     6  N   -0.240222
     7  C    1.389763
     8  N   -0.633492
     9  C    0.927584
    10  C    0.063598
    11  C    0.714074
    12  C    0.606047
    13  C    0.633596
    14  C    0.392195
    15  C    0.052492
    16  O   -1.231645
    17  H   -0.547159
    18  H   -0.646139
    19  H   -0.457461
    20  H   -0.463246
    21  H   -0.448701
    22  H   -0.534310
    23  H   -0.039704
    24  H   -0.011411
    25  H   -0.064746
 Sum of Mulliken charges =  -1.00000

 Dipole moment (field-independent basis, Debye):
    X=            -14.4724    Y=              0.0534    Z=              3.5160  Tot=             14.8934
 Quadrupole moment (field-independent basis, Debye-Ang):
   XX=           -162.2034   YY=           -110.6482   ZZ=           -110.6454
   XY=            -10.5383   XZ=             16.0302   YZ=             -0.6854

 Normal termination of Gaussian 16 at Thu Sep 24 15:46:57 2020.
