 Gaussian 16, Revision B.01,

 ----------------------------------------------------------------------
 #p b3lyp/6-31G(d) opt freq NoSymm scf=(MaxCycle=2000,NoVarAcc,NoIncFoc
 k) scrf=(iefpcm,read,solvent=water)
 ----------------------------------------------------------------------

 -------------------
 SM44_m1.a.9.pdb.xyz
 -------------------
 Symbolic Z-matrix:
 Charge = -1 Multiplicity = 1

 SCF Done:  E(RB3LYP) =  -1116.06477469     A.U. after   13 cycles
 SCF Done:  E(RB3LYP) =  -1116.06463940     A.U. after   10 cycles
 SCF Done:  E(RB3LYP) =  -1116.06463251     A.U. after   10 cycles
 SCF Done:  E(RB3LYP) =  -1116.06477142     A.U. after   10 cycles
 SCF Done:  E(RB3LYP) =  -1116.06477616     A.U. after    9 cycles
 SCF Done:  E(RB3LYP) =  -1116.06463025     A.U. after   11 cycles
 SCF Done:  E(RB3LYP) =  -1116.06461894     A.U. after   10 cycles
 SCF Done:  E(RB3LYP) =  -1116.06476889     A.U. after   10 cycles
 SCF Done:  E(RB3LYP) =  -1116.06477591     A.U. after    9 cycles
 SCF Done:  E(RB3LYP) =  -1116.06477617     A.U. after    8 cycles
 SCF Done:  E(RB3LYP) =  -1116.06477603     A.U. after    9 cycles
 SCF Done:  E(RB3LYP) =  -1116.06463354     A.U. after   10 cycles
 SCF Done:  E(RB3LYP) =  -1116.06462452     A.U. after    7 cycles
 SCF Done:  E(RB3LYP) =  -1116.06476868     A.U. after   10 cycles
 SCF Done:  E(RB3LYP) =  -1116.06477603     A.U. after    9 cycles
 SCF Done:  E(RB3LYP) =  -1116.06462473     A.U. after   10 cycles
 Optimization completed.
    -- Stationary point found.
 Normal termination of Gaussian 16 at Thu Sep 24 15:29:30 2020.

 --------------------------------------------------------------------
 #P Geom=AllCheck Guess=TCheck SCRF=Check GenChk RB3LYP/6-31G(d) Freq
 --------------------------------------------------------------------

 Structure from the checkpoint file:  "SM44_m1.a.9.pdb.xyz.mst.a.w.chk"
 -------------------
 SM44_m1.a.9.pdb.xyz
 -------------------
 Charge = -1 Multiplicity = 1

 SCF Done:  E(RB3LYP) =  -1116.06462473     A.U. after    1 cycles

  Exact polarizability: 307.946  -0.253 158.750  -4.731 -47.123 131.548
 Approx polarizability: 319.418   1.682 201.442  -4.398 -66.164 162.977

                      1                      2                      3
                      A                      A                      A
 Frequencies --     34.0528                47.5381                82.4229
 Red. masses --      6.5817                 4.3949                 5.9106
 Frc consts  --      0.0045                 0.0059                 0.0237
 IR Inten    --      5.5328                 2.2752                 2.3697

                      4                      5                      6
                      A                      A                      A
 Frequencies --     90.2418                96.3854               147.3036
 Red. masses --      5.6909                 5.9470                 6.1866
 Frc consts  --      0.0273                 0.0326                 0.0791
 IR Inten    --     12.9149                 7.1459                 0.4475

                      7                      8                      9
                      A                      A                      A
 Frequencies --    225.7781               242.4904               266.5558
 Red. masses --      4.2456                 1.1486                 5.9036
 Frc consts  --      0.1275                 0.0398                 0.2471
 IR Inten    --      1.3923                 1.6034                11.0495

                     10                     11                     12
                      A                      A                      A
 Frequencies --    294.1510               308.4283               347.6340
 Red. masses --      4.6490                 5.0996                 5.1719
 Frc consts  --      0.2370                 0.2858                 0.3683
 IR Inten    --      5.8176                 1.3744                 1.5512

                     13                     14                     15
                      A                      A                      A
 Frequencies --    403.7267               417.8448               424.9373
 Red. masses --      7.8832                 3.5473                 6.2271
 Frc consts  --      0.7571                 0.3649                 0.6625
 IR Inten    --      7.7112                 1.1131                 1.2793

                     16                     17                     18
                      A                      A                      A
 Frequencies --    465.4351               489.6036               527.3172
 Red. masses --      6.3955                 8.2822                 4.0340
 Frc consts  --      0.8163                 1.1697                 0.6609
 IR Inten    --     58.1644                82.3634                35.8602

                     19                     20                     21
                      A                      A                      A
 Frequencies --    556.2464               628.4349               670.4565
 Red. masses --      5.2461                 6.4396                 4.2756
 Frc consts  --      0.9564                 1.4984                 1.1324
 IR Inten    --     41.3564                 0.1533                 3.5156

                     22                     23                     24
                      A                      A                      A
 Frequencies --    687.1583               694.7161               706.2681
 Red. masses --      7.2496                 2.1344                 2.3262
 Frc consts  --      2.0169                 0.6069                 0.6837
 IR Inten    --     21.3941                 6.1679                21.4362

                     25                     26                     27
                      A                      A                      A
 Frequencies --    710.7763               739.2054               766.1348
 Red. masses --      6.5768                 2.7247                 8.1171
 Frc consts  --      1.9576                 0.8772                 2.8071
 IR Inten    --     34.9060                80.6124               170.9860

                     28                     29                     30
                      A                      A                      A
 Frequencies --    779.7009               855.9324               924.5251
 Red. masses --      1.6625                 1.2488                 6.7723
 Frc consts  --      0.5955                 0.5390                 3.4106
 IR Inten    --     73.3964                 0.3737               129.8477

                     31                     32                     33
                      A                      A                      A
 Frequencies --    933.1389               981.6422               990.5061
 Red. masses --      1.3983                 1.3407                 1.5191
 Frc consts  --      0.7174                 0.7612                 0.8781
 IR Inten    --      7.5925                 0.1001                82.4213

                     34                     35                     36
                      A                      A                      A
 Frequencies --    997.2011               999.6625              1008.1277
 Red. masses --      1.9769                 3.0184                 1.2579
 Frc consts  --      1.1583                 1.7772                 0.7532
 IR Inten    --     50.1987                14.1806                 0.3896

                     37                     38                     39
                      A                      A                      A
 Frequencies --   1018.1409              1050.8801              1060.3651
 Red. masses --      6.0039                 2.7923                 3.3347
 Frc consts  --      3.6669                 1.8169                 2.2091
 IR Inten    --      1.3075                 5.7726                50.7599

                     40                     41                     42
                      A                      A                      A
 Frequencies --   1073.9251              1093.1749              1109.9107
 Red. masses --      2.8214                 5.1891                 1.6595
 Frc consts  --      1.9172                 3.6536                 1.2045
 IR Inten    --    231.6805               664.7751                41.9816

                     43                     44                     45
                      A                      A                      A
 Frequencies --   1188.3844              1201.2644              1205.8955
 Red. masses --      1.0956                 1.2070                10.0820
 Frc consts  --      0.9116                 1.0262                 8.6381
 IR Inten    --      0.1842                14.9266               435.9510

                     46                     47                     48
                      A                      A                      A
 Frequencies --   1235.4686              1247.8546              1282.1199
 Red. masses --      5.0878                 5.0886                 2.8083
 Frc consts  --      4.5756                 4.6685                 2.7199
 IR Inten    --     65.0434                15.8815               238.0123

                     49                     50                     51
                      A                      A                      A
 Frequencies --   1335.3499              1366.2383              1368.7310
 Red. masses --      3.4149                 2.8480                 1.3827
 Frc consts  --      3.5877                 3.1321                 1.5262
 IR Inten    --    173.8111                 2.4464                99.5886

                     52                     53                     54
                      A                      A                      A
 Frequencies --   1380.3507              1455.8695              1480.3513
 Red. masses --      2.4093                 4.3848                 1.0533
 Frc consts  --      2.7047                 5.4758                 1.3600
 IR Inten    --    278.0587               199.6106                 2.0897

                     55                     56                     57
                      A                      A                      A
 Frequencies --   1495.7482              1512.0871              1546.5646
 Red. masses --      1.0523                 2.5032                 2.7353
 Frc consts  --      1.3872                 3.3720                 3.8547
 IR Inten    --      4.8447                21.3567               399.0203

                     58                     59                     60
                      A                      A                      A
 Frequencies --   1583.1261              1651.9692              1659.0495
 Red. masses --      6.3718                 6.3171                 5.7241
 Frc consts  --      9.4090                10.1571                 9.2827
 IR Inten    --    378.1915                 5.8773                43.4914

                     61                     62                     63
                      A                      A                      A
 Frequencies --   3098.4023              3194.6111              3208.2970
 Red. masses --      1.0302                 1.1069                 1.1065
 Frc consts  --      5.8270                 6.6559                 6.7104
 IR Inten    --      9.2708                 9.1358                 2.0434

                     64                     65                     66
                      A                      A                      A
 Frequencies --   3208.7526              3217.2437              3227.8041
 Red. masses --      1.0862                 1.0900                 1.0943
 Frc consts  --      6.5891                 6.6474                 6.7174
 IR Inten    --      0.7926                21.8716                47.6886

                     67                     68                     69
                      A                      A                      A
 Frequencies --   3238.3715              3260.9270              3332.3199
 Red. masses --      1.0950                 1.0925                 1.0982
 Frc consts  --      6.7656                 6.8449                 7.1849
 IR Inten    --     12.0910                 2.6165                 5.9237

 - Thermochemistry -
 -------------------
 Temperature   298.150 Kelvin.  Pressure   1.00000 Atm.
 Atom     1 has atomic number  8 and mass  15.99491

 Molecular mass:   237.04462 amu.
 Principal axes and moments of inertia in atomic units:
                           1         2         3
     Eigenvalues --   922.485869497.065229958.83935
           X            0.99967   0.02410  -0.00869
           Y           -0.01319   0.77491   0.63193
           Z            0.02197  -0.63161   0.77498
 This molecule is an asymmetric top.
 Rotational symmetry number  1.
 Warning -- assumption of classical behavior for rotation
           may cause significant error
 Rotational temperatures (Kelvin)      0.09389     0.00912     0.00870
 Rotational constants (GHZ):           1.95639     0.19003     0.18122
 Zero-point vibrational energy     479291.2 (Joules/Mol)
                                  114.55334 (Kcal/Mol)
 Warning -- explicit consideration of  19 degrees of freedom as
           vibrations may cause significant error
 Vibrational temperatures:     48.99    68.40   118.59   129.84   138.68
          (Kelvin)            211.94   324.84   348.89   383.51   423.22
                              443.76   500.17   580.87   601.19   611.39
                              669.66   704.43   758.69   800.31   904.18
                              964.64   988.67   999.54  1016.16  1022.65
                             1063.55  1102.30  1121.82  1231.50  1330.19
                             1342.58  1412.36  1425.12  1434.75  1438.29
                             1450.47  1464.88  1511.98  1525.63  1545.14
                             1572.83  1596.91  1709.82  1728.35  1735.01
                             1777.56  1795.38  1844.68  1921.27  1965.71
                             1969.30  1986.02  2094.67  2129.90  2152.05
                             2175.56  2225.16  2277.77  2376.82  2387.00
                             4457.91  4596.33  4616.02  4616.68  4628.90
                             4644.09  4659.29  4691.75  4794.47

 Zero-point correction=                           0.182552 (Hartree/Particle)
 Thermal correction to Energy=                    0.196117
 Thermal correction to Enthalpy=                  0.197061
 Thermal correction to Gibbs Free Energy=         0.140833
 Sum of electronic and zero-point Energies=          -1115.882072
 Sum of electronic and thermal Energies=             -1115.868508
 Sum of electronic and thermal Enthalpies=           -1115.867564
 Sum of electronic and thermal Free Energies=        -1115.923792

                     E (Thermal)             CV                S
                      KCal/Mol        Cal/Mol-Kelvin    Cal/Mol-Kelvin
 Total                  123.065             51.877            118.343
 Electronic               0.000              0.000              0.000
 Translational            0.889              2.981             42.291
 Rotational               0.889              2.981             32.834
 Vibrational            121.288             45.915             43.219
 Vibration     1          0.594              1.983              5.578
 Vibration     2          0.595              1.979              4.917
 Vibration     3          0.600              1.961              3.832
 Vibration     4          0.602              1.956              3.655
 Vibration     5          0.603              1.952              3.526
 Vibration     6          0.617              1.906              2.707
 Vibration     7          0.650              1.802              1.912
 Vibration     8          0.659              1.775              1.785
 Vibration     9          0.672              1.734              1.618
 Vibration    10          0.689              1.685              1.450
 Vibration    11          0.698              1.658              1.371
 Vibration    12          0.725              1.580              1.177
 Vibration    13          0.769              1.462              0.949
 Vibration    14          0.781              1.431              0.899
 Vibration    15          0.787              1.416              0.875
 Vibration    16          0.823              1.327              0.750
 Vibration    17          0.845              1.273              0.685
 Vibration    18          0.882              1.190              0.593
 Vibration    19          0.912              1.126              0.531

 Optimization completed.
    -- Stationary point found.
 Normal termination of Gaussian 16 at Thu Sep 24 15:34:50 2020.

 ----------------------------------------------------------------------
 #p b3lyp/6-31G(d) scrf=(iefpcm,read,solvent=water) geom=allcheck guess
 =read
 ----------------------------------------------------------------------

 Structure from the checkpoint file:  "SM44_m1.a.9.pdb.xyz.mst.a.w.chk"
 -------------------
 SM44_m1.a.9.pdb.xyz
 -------------------
 Charge = -1 Multiplicity = 1

 SCF Done:  E(RB3LYP) =  -1116.06459616     A.U. after    7 cycles
 Normal termination of Gaussian 16 at Thu Sep 24 15:35:17 2020.

 -----------------------------
 #p B3LYP/6-31G* geom=allcheck
 -----------------------------

 Structure from the checkpoint file:  "SM44_m1.a.9.pdb.xyz.mst.a.w.chk"
 -------------------
 SM44_m1.a.9.pdb.xyz
 -------------------
 Charge = -1 Multiplicity = 1

 SCF Done:  E(RB3LYP) =  -1115.95971173     A.U. after   15 cycles
 Normal termination of Gaussian 16 at Thu Sep 24 15:35:45 2020.
 Gaussian 16:  ES64L-G16RevB.01 20-Dec-2017

 ----------------------------------------------------------------------
 #p mp2/aug-cc-pVDZ scf=(MaxCycle=2000,NoVarAcc,NoIncFock) maxdisk=120G
 B geom=allcheck
 ----------------------------------------------------------------------

 Structure from the checkpoint file:  "SM44_m1.a.9.pdb.xyz.mst.a.w.chk"
 -------------------
 SM44_m1.a.9.pdb.xyz
 -------------------
 Charge = -1 Multiplicity = 1

                         Standard orientation:
 ---------------------------------------------------------------------
 Center     Atomic      Atomic             Coordinates (Angstroms)
 Number     Number       Type             X           Y           Z
 ---------------------------------------------------------------------
      1          8           0       -4.636607    1.097171   -0.291013
      2         16           0       -3.517830    0.126143   -0.161499
      3          7           0       -2.165387    0.985946   -0.174988
      4          6           0       -0.951432    0.342842   -0.064747
      5          7           0       -0.731610   -0.985956    0.225895
      6          7           0        0.562536   -1.221844    0.272582
      7          6           0        0.297138    0.941105   -0.200144
      8          7           0        1.194329   -0.061659    0.014617
      9          6           0        2.613204    0.003338    0.003296
     10          6           0        3.353485   -1.157674   -0.239861
     11          6           0        4.744889   -1.091569   -0.244511
     12          6           0        5.397615    0.123665   -0.022836
     13          6           0        4.648212    1.277418    0.212821
     14          6           0        3.254854    1.223790    0.233769
     15          6           0       -3.698906   -0.636118    1.463963
     16          8           0       -3.554359   -0.999896   -1.139935
     17          1           0        0.590746    1.946429   -0.446886
     18          1           0        2.834606   -2.088624   -0.423672
     19          1           0        5.319065   -1.992709   -0.432654
     20          1           0        6.481072    0.170753   -0.034293
     21          1           0        5.145795    2.224431    0.390997
     22          1           0        2.673421    2.114862    0.438776
     23          1           0       -3.735577    0.151002    2.217576
     24          1           0       -2.842999   -1.288640    1.633248
     25          1           0       -4.626560   -1.210198    1.471248
 ---------------------------------------------------------------------

 SCF Done:  E(RHF) =  -1111.08695024     A.U. after   17 cycles
 E2 =    -0.2492967186D+01 EUMP2 =    -0.11135799174252D+04

 The electronic state is 1-A.
 Alpha  occ. eigenvalues --  -92.03226 -20.36558 -20.36497 -15.55497 -15.52714
 Alpha  occ. eigenvalues --  -15.47146 -15.37761 -11.21827 -11.17896 -11.17722
 Alpha  occ. eigenvalues --  -11.17213 -11.17153 -11.16947 -11.16719 -11.14278
 Alpha  occ. eigenvalues --  -11.11726  -8.99965  -6.68510  -6.68447  -6.68390
 Alpha  occ. eigenvalues --   -1.31813  -1.25740  -1.13376  -1.12679  -1.06824
 Alpha  occ. eigenvalues --   -1.03863  -0.95482  -0.94376  -0.92037  -0.86028
 Alpha  occ. eigenvalues --   -0.78875  -0.76884  -0.71162  -0.69863  -0.66050
 Alpha  occ. eigenvalues --   -0.62017  -0.58827  -0.56166  -0.55326  -0.53122
 Alpha  occ. eigenvalues --   -0.52078  -0.51809  -0.50519  -0.48623  -0.47052
 Alpha  occ. eigenvalues --   -0.44842  -0.44232  -0.43644  -0.43165  -0.42610
 Alpha  occ. eigenvalues --   -0.39643  -0.34945  -0.33013  -0.32441  -0.30552
 Alpha  occ. eigenvalues --   -0.28948  -0.28645  -0.27149  -0.26961  -0.24448
 Alpha  occ. eigenvalues --   -0.23705  -0.15017
 Alpha virt. eigenvalues --    0.08726   0.09711   0.10801   0.12694   0.13235
 Alpha virt. eigenvalues --    0.13729   0.14332   0.15262   0.16450   0.17123
 Alpha virt. eigenvalues --    0.17455   0.17881   0.18627   0.19514   0.19827

 Mulliken charges:
               1
     1  O   -1.231718
     2  S    2.730588
     3  N   -1.311388
     4  C    0.087440
     5  N   -0.681350
     6  N   -0.270973
     7  C    1.377961
     8  N   -0.612302
     9  C    0.908183
    10  C    0.406351
    11  C    0.606253
    12  C    0.597068
    13  C    0.696915
    14  C    0.115214
    15  C    0.055101
    16  O   -1.280207
    17  H   -0.543387
    18  H   -0.528966
    19  H   -0.445385
    20  H   -0.462580
    21  H   -0.454350
    22  H   -0.643191
    23  H   -0.011306
    24  H   -0.038467
    25  H   -0.065505
 Sum of Mulliken charges =  -1.00000

 Dipole moment (field-independent basis, Debye):
    X=             14.5325    Y=              0.1861    Z=              3.4920  Tot=             14.9473
 Quadrupole moment (field-independent basis, Debye-Ang):
   XX=           -161.9747   YY=           -110.8829   ZZ=           -110.4751
   XY=             10.0197   XZ=            -16.5241   YZ=             -0.1396

 Normal termination of Gaussian 16 at Thu Sep 24 15:50:11 2020.
