 Gaussian 16, Revision B.01,

 ----------------------------------------------------------------------
 #p b3lyp/6-31G(d) opt freq NoSymm scf=(MaxCycle=2000,NoVarAcc,NoIncFoc
 k) scrf=(iefpcm,read,solvent=water)
 ----------------------------------------------------------------------

 -------------------
 SM44_m2.b.3.pdb.xyz
 -------------------
 Symbolic Z-matrix:
 Charge =  1 Multiplicity = 1

 SCF Done:  E(RB3LYP) =  -1116.98528299     A.U. after   13 cycles
 SCF Done:  E(RB3LYP) =  -1116.98525501     A.U. after    9 cycles
 SCF Done:  E(RB3LYP) =  -1116.98523705     A.U. after    9 cycles
 SCF Done:  E(RB3LYP) =  -1116.98528287     A.U. after    9 cycles
 SCF Done:  E(RB3LYP) =  -1116.98517734     A.U. after   10 cycles
 SCF Done:  E(RB3LYP) =  -1116.98517437     A.U. after    9 cycles
 SCF Done:  E(RB3LYP) =  -1116.98528264     A.U. after   10 cycles
 SCF Done:  E(RB3LYP) =  -1116.98528392     A.U. after    8 cycles
 SCF Done:  E(RB3LYP) =  -1116.98516871     A.U. after   10 cycles
 SCF Done:  E(RB3LYP) =  -1116.98514893     A.U. after    9 cycles
 SCF Done:  E(RB3LYP) =  -1116.98528142     A.U. after    2 cycles
 SCF Done:  E(RB3LYP) =  -1116.98528142     A.U. after    2 cycles
 SCF Done:  E(RB3LYP) =  -1116.98518619     A.U. after   10 cycles
 SCF Done:  E(RB3LYP) =  -1116.98518797     A.U. after    8 cycles
 SCF Done:  E(RB3LYP) =  -1116.98518789     A.U. after    7 cycles
 SCF Done:  E(RB3LYP) =  -1116.98519836     A.U. after   10 cycles
 Optimization completed.
    -- Stationary point found.
 Normal termination of Gaussian 16 at Thu Sep 24 15:07:41 2020.

 --------------------------------------------------------------------
 #P Geom=AllCheck Guess=TCheck SCRF=Check GenChk RB3LYP/6-31G(d) Freq
 --------------------------------------------------------------------

 Structure from the checkpoint file:  "SM44_m2.b.3.pdb.xyz.mst.b.w.chk"
 -------------------
 SM44_m2.b.3.pdb.xyz
 -------------------
 Charge =  1 Multiplicity = 1

 SCF Done:  E(RB3LYP) =  -1116.98519836     A.U. after    1 cycles

  Exact polarizability: 273.023   8.166 176.220  19.046 -29.473 115.138
 Approx polarizability: 288.307   6.722 225.071  27.143 -41.351 137.178

                      1                      2                      3
                      A                      A                      A
 Frequencies --     36.8678                46.4078                54.3007
 Red. masses --      6.3280                 5.3027                 4.4344
 Frc consts  --      0.0051                 0.0067                 0.0077
 IR Inten    --      5.3769                11.2127                 8.3810

                      4                      5                      6
                      A                      A                      A
 Frequencies --     61.2449               105.5720               118.4835
 Red. masses --      5.5565                 4.8880                 6.1046
 Frc consts  --      0.0123                 0.0321                 0.0505
 IR Inten    --      5.5920                 5.4227                 2.4066

                      7                      8                      9
                      A                      A                      A
 Frequencies --    233.3184               235.0943               255.6105
 Red. masses --      2.1255                 1.5066                 5.1890
 Frc consts  --      0.0682                 0.0491                 0.1998
 IR Inten    --      1.7991                 2.3003                 1.8665

                     10                     11                     12
                      A                      A                      A
 Frequencies --    276.0208               299.0480               341.4592
 Red. masses --      7.0213                 3.8679                 4.2623
 Frc consts  --      0.3152                 0.2038                 0.2928
 IR Inten    --      1.1125                 9.2989                 0.1745

                     13                     14                     15
                      A                      A                      A
 Frequencies --    392.8074               404.7785               419.3489
 Red. masses --      6.3721                 4.8529                 3.0364
 Frc consts  --      0.5793                 0.4685                 0.3146
 IR Inten    --      2.7425                12.0452                 0.6023

                     16                     17                     18
                      A                      A                      A
 Frequencies --    452.2478               481.5431               506.3060
 Red. masses --      5.2839                 6.4270                 3.5817
 Frc consts  --      0.6367                 0.8781                 0.5410
 IR Inten    --     15.4243                55.9759                39.7741

                     19                     20                     21
                      A                      A                      A
 Frequencies --    538.6322               559.3597               626.7102
 Red. masses --      2.7655                 3.5571                 6.4346
 Frc consts  --      0.4727                 0.6557                 1.4890
 IR Inten    --     84.7917               178.2341                 0.4703

                     22                     23                     24
                      A                      A                      A
 Frequencies --    666.8973               692.8888               701.7788
 Red. masses --      3.0882                 4.6116                 3.5363
 Frc consts  --      0.8092                 1.3044                 1.0261
 IR Inten    --      6.8016                 8.0495                36.8065

                     25                     26                     27
                      A                      A                      A
 Frequencies --    702.4018               732.7650               745.0646
 Red. masses --      3.4643                 1.2361                 6.5365
 Frc consts  --      1.0070                 0.3911                 2.1379
 IR Inten    --     39.3733               124.8353               152.9026

                     28                     29                     30
                      A                      A                      A
 Frequencies --    781.1821               785.7674               823.0855
 Red. masses --      1.6302                 2.1440                 2.0270
 Frc consts  --      0.5861                 0.7799                 0.8091
 IR Inten    --     82.1252                58.2284                10.9603

                     31                     32                     33
                      A                      A                      A
 Frequencies --    838.3489               852.0580               944.7499
 Red. masses --      3.5042                 1.2575                 1.3661
 Frc consts  --      1.4511                 0.5379                 0.7184
 IR Inten    --    136.4097                 0.1541                 6.4299

                     34                     35                     36
                      A                      A                      A
 Frequencies --    987.2313              1006.8441              1019.3055
 Red. masses --      1.3472                 7.8784                 1.2875
 Frc consts  --      0.7736                 4.7056                 0.7881
 IR Inten    --      0.5481                28.0009                 0.7682

                     37                     38                     39
                      A                      A                      A
 Frequencies --   1020.3191              1022.7645              1024.1192
 Red. masses --      1.3706                 6.1190                 1.3357
 Frc consts  --      0.8407                 3.7712                 0.8254
 IR Inten    --     92.0083                 1.3787                 5.1419

                     40                     41                     42
                      A                      A                      A
 Frequencies --   1054.5523              1077.7030              1110.6516
 Red. masses --      2.1845                 2.8018                 2.7363
 Frc consts  --      1.4313                 1.9173                 1.9887
 IR Inten    --      5.0620                81.1448                30.3664

                     43                     44                     45
                      A                      A                      A
 Frequencies --   1115.2208              1127.8319              1193.5054
 Red. masses --      1.5650                11.5371                 1.0937
 Frc consts  --      1.1468                 8.6464                 0.9179
 IR Inten    --     14.9536               366.9197                 0.2517

                     46                     47                     48
                      A                      A                      A
 Frequencies --   1206.2672              1220.9937              1247.2111
 Red. masses --      1.1610                 1.9686                 2.5584
 Frc consts  --      0.9954                 1.7292                 2.3447
 IR Inten    --      3.1093                70.0293                 2.4218

                     49                     50                     51
                      A                      A                      A
 Frequencies --   1313.1926              1343.2170              1356.8209
 Red. masses --      7.7390                 2.5969                 3.3432
 Frc consts  --      7.8631                 2.7606                 3.6263
 IR Inten    --    256.2582                19.5103                97.9101

                     52                     53                     54
                      A                      A                      A
 Frequencies --   1369.7998              1399.6528              1403.8762
 Red. masses --      2.9548                 1.4289                 1.6627
 Frc consts  --      3.2666                 1.6492                 1.9307
 IR Inten    --      2.7167                10.4106                73.3741

                     55                     56                     57
                      A                      A                      A
 Frequencies --   1413.7690              1467.3814              1476.6347
 Red. masses --      2.8295                 3.0773                 1.0493
 Frc consts  --      3.3321                 3.9039                 1.3481
 IR Inten    --     71.9805                13.1376                 8.7948

                     58                     59                     60
                      A                      A                      A
 Frequencies --   1484.3675              1502.7655              1518.5301
 Red. masses --      1.0837                 1.9564                 2.5745
 Frc consts  --      1.4068                 2.6031                 3.4978
 IR Inten    --      7.1868                17.5288                18.2550

                     61                     62                     63
                      A                      A                      A
 Frequencies --   1542.8808              1646.6025              1654.9178
 Red. masses --      2.4083                 5.3494                 5.5798
 Frc consts  --      3.3777                 8.5453                 9.0037
 IR Inten    --     36.5928               293.6444                27.1310

                     64                     65                     66
                      A                      A                      A
 Frequencies --   1663.3668              3110.4920              3212.7340
 Red. masses --      5.9323                 1.0290                 1.1071
 Frc consts  --      9.6705                 5.8660                 6.7327
 IR Inten    --    136.8131                 0.4680                 1.6279

                     67                     68                     69
                      A                      A                      A
 Frequencies --   3220.0446              3226.2338              3231.9213
 Red. masses --      1.0872                 1.1094                 1.0896
 Frc consts  --      6.6418                 6.8032                 6.7058
 IR Inten    --      1.2556                 0.2207                11.9927

                     70                     71                     72
                      A                      A                      A
 Frequencies --   3237.9787              3246.6353              3257.2757
 Red. masses --      1.0934                 1.0960                 1.0943
 Frc consts  --      6.7543                 6.8064                 6.8408
 IR Inten    --     27.2953                 7.6784                 1.4336

                     73                     74                     75
                      A                      A                      A
 Frequencies --   3354.7704              3512.9019              3541.0004
 Red. masses --      1.1019                 1.0771                 1.0871
 Frc consts  --      7.3067                 7.8317                 8.0310
 IR Inten    --     26.6773               247.4600               551.1223

 - Thermochemistry -
 -------------------
 Temperature   298.150 Kelvin.  Pressure   1.00000 Atm.
 Atom     1 has atomic number  8 and mass  15.99491

 Molecular mass:   239.06027 amu.
 Principal axes and moments of inertia in atomic units:
                           1         2         3
     Eigenvalues --  1085.432509337.982609650.66522
           X            0.99998  -0.00669  -0.00197
           Y            0.00695   0.97909   0.20331
           Z            0.00057  -0.20332   0.97911
 This molecule is an asymmetric top.
 Rotational symmetry number  1.
 Warning -- assumption of classical behavior for rotation
           may cause significant error
 Rotational temperatures (Kelvin)      0.07980     0.00928     0.00897
 Rotational constants (GHZ):           1.66269     0.19327     0.18701
 Zero-point vibrational energy     549423.5 (Joules/Mol)
                                  131.31537 (Kcal/Mol)
 Warning -- explicit consideration of  20 degrees of freedom as
           vibrations may cause significant error
 Vibrational temperatures:     53.04    66.77    78.13    88.12   151.89
          (Kelvin)            170.47   335.69   338.25   367.77   397.13
                              430.26   491.28   565.16   582.39   603.35
                              650.68   692.83   728.46   774.97   804.79
                              901.70   959.52   996.91  1009.70  1010.60
                             1054.29  1071.98  1123.95  1130.54  1184.24
                             1206.20  1225.92  1359.28  1420.41  1448.62
                             1466.55  1468.01  1471.53  1473.48  1517.27
                             1550.57  1597.98  1604.55  1622.70  1717.19
                             1735.55  1756.74  1794.46  1889.39  1932.59
                             1952.16  1970.84  2013.79  2019.86  2034.10
                             2111.23  2124.55  2135.67  2162.14  2184.83
                             2219.86  2369.09  2381.06  2393.21  4475.30
                             4622.41  4632.93  4641.83  4650.01  4658.73
                             4671.18  4686.49  4826.77  5054.28  5094.71

 Zero-point correction=                           0.209264 (Hartree/Particle)
 Thermal correction to Energy=                    0.223336
 Thermal correction to Enthalpy=                  0.224281
 Thermal correction to Gibbs Free Energy=         0.166619
 Sum of electronic and zero-point Energies=          -1116.775934
 Sum of electronic and thermal Energies=             -1116.761862
 Sum of electronic and thermal Enthalpies=           -1116.760918
 Sum of electronic and thermal Free Energies=        -1116.818579

                     E (Thermal)             CV                S
                      KCal/Mol        Cal/Mol-Kelvin    Cal/Mol-Kelvin
 Total                  140.146             53.828            121.358
 Electronic               0.000              0.000              0.000
 Translational            0.889              2.981             42.316
 Rotational               0.889              2.981             32.947
 Vibrational            138.368             47.867             46.095
 Vibration     1          0.594              1.982              5.421
 Vibration     2          0.595              1.979              4.965
 Vibration     3          0.596              1.976              4.654
 Vibration     4          0.597              1.973              4.417
 Vibration     5          0.605              1.945              3.349
 Vibration     6          0.609              1.934              3.125
 Vibration     7          0.654              1.790              1.853
 Vibration     8          0.655              1.787              1.840
 Vibration     9          0.666              1.753              1.692
 Vibration    10          0.678              1.718              1.558
 Vibration    11          0.692              1.675              1.422
 Vibration    12          0.721              1.593              1.205
 Vibration    13          0.760              1.486              0.989
 Vibration    14          0.770              1.460              0.945
 Vibration    15          0.782              1.428              0.894
 Vibration    16          0.811              1.356              0.789
 Vibration    17          0.838              1.291              0.706
 Vibration    18          0.862              1.236              0.643
 Vibration    19          0.894              1.165              0.568
 Vibration    20          0.915              1.119              0.525

                           ! Non-Optimized Parameters !
 Normal termination of Gaussian 16 at Thu Sep 24 15:13:52 2020.

 ----------------------------------------------------------------------
 #p b3lyp/6-31G(d) scrf=(iefpcm,read,solvent=water) geom=allcheck guess
 =read
 ----------------------------------------------------------------------

 Structure from the checkpoint file:  "SM44_m2.b.3.pdb.xyz.mst.b.w.chk"
 -------------------
 SM44_m2.b.3.pdb.xyz
 -------------------
 Charge =  1 Multiplicity = 1

 SCF Done:  E(RB3LYP) =  -1116.98522084     A.U. after    7 cycles
 Normal termination of Gaussian 16 at Thu Sep 24 15:14:19 2020.

 -----------------------------
 #p B3LYP/6-31G* geom=allcheck
 -----------------------------

 Structure from the checkpoint file:  "SM44_m2.b.3.pdb.xyz.mst.b.w.chk"
 -------------------
 SM44_m2.b.3.pdb.xyz
 -------------------
 Charge =  1 Multiplicity = 1

 SCF Done:  E(RB3LYP) =  -1116.87960394     A.U. after   16 cycles
 Normal termination of Gaussian 16 at Thu Sep 24 15:14:53 2020.
 Gaussian 16:  ES64L-G16RevB.01 20-Dec-2017

 ----------------------------------------------------------------------
 #p mp2/aug-cc-pVDZ scf=(MaxCycle=2000,NoVarAcc,NoIncFock) maxdisk=120G
 B geom=allcheck
 ----------------------------------------------------------------------

 Structure from the checkpoint file:  "SM44_m2.b.3.pdb.xyz.mst.b.w.chk"
 -------------------
 SM44_m2.b.3.pdb.xyz
 -------------------
 Charge =  1 Multiplicity = 1

                         Standard orientation:
 ---------------------------------------------------------------------
 Center     Atomic      Atomic             Coordinates (Angstroms)
 Number     Number       Type             X           Y           Z
 ---------------------------------------------------------------------
      1          8           0        4.729078   -0.535212   -0.481269
      2         16           0        3.518642   -0.039053    0.172162
      3          7           0        2.229812   -0.620636   -0.800409
      4          6           0        0.940875   -0.149654   -0.625847
      5          7           0        0.580349    1.149852   -0.812323
      6          7           0       -0.705472    1.361785   -0.635485
      7          6           0       -0.237706   -0.795834   -0.313337
      8          7           0       -1.195618    0.169569   -0.345727
      9          6           0       -2.598532    0.017984   -0.083411
     10          6           0       -3.220650   -1.185628   -0.412445
     11          6           0       -4.580061   -1.328727   -0.141267
     12          6           0       -5.297245   -0.280055    0.437381
     13          6           0       -4.655238    0.919923    0.751167
     14          6           0       -3.294959    1.077562    0.497764
     15          6           0        3.339664   -0.834153    1.768916
     16          8           0        3.278956    1.399273    0.315418
     17          1           0        2.288374   -1.630253   -0.958537
     18          1           0       -0.437664   -1.822944   -0.064759
     19          1           0       -2.665229   -1.986205   -0.885944
     20          1           0       -5.076864   -2.258518   -0.392686
     21          1           0       -6.354992   -0.397436    0.643800
     22          1           0       -5.209082    1.733825    1.204473
     23          1           0       -2.777956    1.994106    0.750560
     24          1           0        3.416822   -1.911380    1.627528
     25          1           0        2.376962   -0.555653    2.195418
     26          1           0        4.156661   -0.467268    2.391536
     27          1           0        1.180042    1.941596   -1.055074
 ---------------------------------------------------------------------

 SCF Done:  E(RHF) =  -1112.00307571     A.U. after   17 cycles
 E2 =    -0.2469943846D+01 EUMP2 =    -0.11144730195518D+04

 The electronic state is 1-A.
 Alpha  occ. eigenvalues --  -92.37211 -20.70475 -20.69541 -15.89747 -15.87933
 Alpha  occ. eigenvalues --  -15.87701 -15.79406 -11.53887 -11.48557 -11.44825
 Alpha  occ. eigenvalues --  -11.42346 -11.39886 -11.39369 -11.38260 -11.38105
 Alpha  occ. eigenvalues --  -11.37978  -9.34003  -7.02522  -7.02502  -7.02345
 Alpha  occ. eigenvalues --   -1.68582  -1.60282  -1.48119  -1.47365  -1.42431
 Alpha  occ. eigenvalues --   -1.30489  -1.29427  -1.19783  -1.18288  -1.16779
 Alpha  occ. eigenvalues --   -1.09574  -1.07636  -1.02206  -0.98148  -0.96601
 Alpha  occ. eigenvalues --   -0.94303  -0.89425  -0.88239  -0.87669  -0.86481
 Alpha  occ. eigenvalues --   -0.82808  -0.81899  -0.81253  -0.78736  -0.77310
 Alpha  occ. eigenvalues --   -0.75228  -0.74476  -0.73825  -0.73505  -0.71981
 Alpha  occ. eigenvalues --   -0.70072  -0.66680  -0.65669  -0.64578  -0.64081
 Alpha  occ. eigenvalues --   -0.63194  -0.62487  -0.60788  -0.60398  -0.53922
 Alpha  occ. eigenvalues --   -0.48086  -0.47781
 Alpha virt. eigenvalues --   -0.09666  -0.08149  -0.06066  -0.05751  -0.05078
 Alpha virt. eigenvalues --   -0.03954  -0.03818  -0.03408  -0.02844  -0.02426
 Alpha virt. eigenvalues --   -0.02059  -0.01895  -0.01452  -0.00596  -0.00502

 Mulliken charges:
               1
     1  O   -1.065881
     2  S    2.591404
     3  N   -0.784991
     4  C    0.438334
     5  N   -0.366342
     6  N   -0.302234
     7  C    1.452213
     8  N   -0.574692
     9  C    0.956498
    10  C    0.122799
    11  C    0.753930
    12  C    0.574460
    13  C    0.590508
    14  C    0.373876
    15  C    0.089533
    16  O   -1.128915
    17  H   -0.026890
    18  H   -0.467346
    19  H   -0.637900
    20  H   -0.411987
    21  H   -0.416772
    22  H   -0.405583
    23  H   -0.521184
    24  H    0.041433
    25  H    0.033333
    26  H    0.056645
    27  H    0.035751
 Sum of Mulliken charges =   1.00000

 Dipole moment (field-independent basis, Debye):
    X=             -5.0227    Y=             -3.5693    Z=              1.7068  Tot=              6.3938
 Quadrupole moment (field-independent basis, Debye-Ang):
   XX=            -68.5435   YY=            -83.4001   ZZ=            -92.9663
   XY=             -5.3878   XZ=              7.3366   YZ=             -1.0397

 Normal termination of Gaussian 16 at Thu Sep 24 15:30:52 2020.
