 Gaussian 16, Revision B.01,

 ----------------------------------------------------------------------
 #p b3lyp/6-31G(d) opt freq NoSymm scf=(MaxCycle=2000,NoVarAcc,NoIncFoc
 k) scrf=(iefpcm,read,solvent=water)
 ----------------------------------------------------------------------

 --------------------
 SM44_m0.n.10.pdb.xyz
 --------------------
 Symbolic Z-matrix:
 Charge =  0 Multiplicity = 1

 SCF Done:  E(RB3LYP) =  -1116.53844666     A.U. after   13 cycles
 SCF Done:  E(RB3LYP) =  -1116.53852711     A.U. after   10 cycles
 SCF Done:  E(RB3LYP) =  -1116.53857827     A.U. after   10 cycles
 SCF Done:  E(RB3LYP) =  -1116.53859553     A.U. after    9 cycles
 SCF Done:  E(RB3LYP) =  -1116.53860992     A.U. after    9 cycles
 SCF Done:  E(RB3LYP) =  -1116.53861330     A.U. after    9 cycles
 SCF Done:  E(RB3LYP) =  -1116.53861387     A.U. after    7 cycles
 SCF Done:  E(RB3LYP) =  -1116.53861271     A.U. after    7 cycles
 SCF Done:  E(RB3LYP) =  -1116.53861250     A.U. after    7 cycles
 SCF Done:  E(RB3LYP) =  -1116.53861327     A.U. after    8 cycles
 SCF Done:  E(RB3LYP) =  -1116.53861331     A.U. after    7 cycles
 Optimization completed.
    -- Stationary point found.
 Normal termination of Gaussian 16 at Wed Sep 23 05:26:08 2020.

 --------------------------------------------------------------------
 #P Geom=AllCheck Guess=TCheck SCRF=Check GenChk RB3LYP/6-31G(d) Freq
 --------------------------------------------------------------------

 Structure from the checkpoint file:  "SM44_m0.n.10.pdb.xyz.mst.n.w.chk"
 --------------------
 SM44_m0.n.10.pdb.xyz
 --------------------
 Charge =  0 Multiplicity = 1

 SCF Done:  E(RB3LYP) =  -1116.53861331     A.U. after    1 cycles

  Exact polarizability: 267.960   7.547 186.760 -23.111  17.775 109.121
 Approx polarizability: 287.484   7.556 236.664 -31.556  25.276 129.577

                      1                      2                      3
                      A                      A                      A
 Frequencies --     30.5869                38.1642                55.2809
 Red. masses --      5.0530                 5.3764                 5.5547
 Frc consts  --      0.0028                 0.0046                 0.0100
 IR Inten    --      3.7341                 1.2088                 6.8911

                      4                      5                      6
                      A                      A                      A
 Frequencies --     89.7983               109.2351               127.4364
 Red. masses --      5.7046                 5.2216                 6.2893
 Frc consts  --      0.0271                 0.0367                 0.0602
 IR Inten    --     11.4964                 0.6844                 1.8169

                      7                      8                      9
                      A                      A                      A
 Frequencies --    225.0536               234.4001               258.2770
 Red. masses --      2.0347                 1.4143                 6.5951
 Frc consts  --      0.0607                 0.0458                 0.2592
 IR Inten    --      2.1598                 1.4249                 1.6792

                     10                     11                     12
                      A                      A                      A
 Frequencies --    280.1647               299.9243               341.3368
 Red. masses --      7.4891                 4.0483                 4.1405
 Frc consts  --      0.3463                 0.2146                 0.2842
 IR Inten    --      2.1854                 8.3017                 2.1927

                     13                     14                     15
                      A                      A                      A
 Frequencies --    395.6356               403.4229               418.5675
 Red. masses --      7.7268                 3.5115                 3.0389
 Frc consts  --      0.7126                 0.3367                 0.3137
 IR Inten    --      3.7766                40.7839                 0.1904

                     16                     17                     18
                      A                      A                      A
 Frequencies --    455.6632               476.4998               494.0604
 Red. masses --      4.9610                 2.7649                 5.5253
 Frc consts  --      0.6069                 0.3699                 0.7946
 IR Inten    --     16.3900                36.4955                89.4216

                     19                     20                     21
                      A                      A                      A
 Frequencies --    528.7599               561.5033               628.0866
 Red. masses --      3.7293                 5.3230                 6.3959
 Frc consts  --      0.6143                 0.9888                 1.4866
 IR Inten    --    103.4904                88.8977                 0.5027

                     22                     23                     24
                      A                      A                      A
 Frequencies --    665.7509               697.6826               705.0272
 Red. masses --      3.6364                 5.9640                 2.3573
 Frc consts  --      0.9496                 1.7104                 0.6904
 IR Inten    --      7.9628                19.7721                26.8687

                     25                     26                     27
                      A                      A                      A
 Frequencies --    718.6198               740.6565               779.6145
 Red. masses --      8.4299                 6.1377                 1.6101
 Frc consts  --      2.5649                 1.9838                 0.5766
 IR Inten    --     16.3047               137.6958                84.0768

                     28                     29                     30
                      A                      A                      A
 Frequencies --    791.6112               826.6231               848.1982
 Red. masses --      1.9883                 2.7407                 3.0895
 Frc consts  --      0.7341                 1.1034                 1.3096
 IR Inten    --     14.9636                 2.4757                88.5175

                     31                     32                     33
                      A                      A                      A
 Frequencies --    853.8717               937.6178               982.7745
 Red. masses --      1.2582                 1.3840                 1.3431
 Frc consts  --      0.5405                 0.7168                 0.7643
 IR Inten    --      0.3496                 5.6153                 0.2630

                     34                     35                     36
                      A                      A                      A
 Frequencies --   1005.7094              1012.2418              1012.5980
 Red. masses --      6.1464                 1.2895                 1.4476
 Frc consts  --      3.6628                 0.7784                 0.8745
 IR Inten    --     48.7126                10.9919                59.1773

                     37                     38                     39
                      A                      A                      A
 Frequencies --   1016.4543              1020.3628              1046.7294
 Red. masses --      1.3423                 6.0587                 3.4110
 Frc consts  --      0.8171                 3.7166                 2.2019
 IR Inten    --      3.1284                 0.2380                 4.7230

                     40                     41                     42
                      A                      A                      A
 Frequencies --   1062.2830              1065.9268              1109.2557
 Red. masses --      2.0532                 4.2131                 1.5405
 Frc consts  --      1.3651                 2.8204                 1.1168
 IR Inten    --     56.8635                90.9915                12.1354

                     43                     44                     45
                      A                      A                      A
 Frequencies --   1124.9341              1189.6772              1199.6392
 Red. masses --     11.9244                 1.1029                 1.1837
 Frc consts  --      8.8908                 0.9197                 1.0037
 IR Inten    --    410.4817                 0.1636                 0.6728

                     46                     47                     48
                      A                      A                      A
 Frequencies --   1225.9565              1234.4903              1292.3673
 Red. masses --      2.2593                 3.1170                 5.9678
 Frc consts  --      2.0007                 2.7987                 5.8727
 IR Inten    --     12.9302                 5.0235               177.2259

                     49                     50                     51
                      A                      A                      A
 Frequencies --   1307.0782              1345.5571              1365.3983
 Red. masses --     11.9012                 2.4117                 2.6642
 Frc consts  --     11.9797                 2.5726                 2.9265
 IR Inten    --    228.6845                65.0659                 4.1430

                     52                     53                     54
                      A                      A                      A
 Frequencies --   1384.1581              1392.7241              1424.2534
 Red. masses --      3.3114                 1.1969                 2.0563
 Frc consts  --      3.7380                 1.3679                 2.4576
 IR Inten    --    121.9575                16.9722                16.3994

                     55                     56                     57
                      A                      A                      A
 Frequencies --   1479.2694              1481.0001              1485.5331
 Red. masses --      1.1488                 1.1789                 1.7861
 Frc consts  --      1.4811                 1.5235                 2.3223
 IR Inten    --     15.8489                 7.7168                18.1640

                     58                     59                     60
                      A                      A                      A
 Frequencies --   1514.7833              1549.9658              1592.2901
 Red. masses --      2.6021                 2.8059                 6.3783
 Frc consts  --      3.5179                 3.9716                 9.5280
 IR Inten    --     15.5190               131.1947                84.9765

                     61                     62                     63
                      A                      A                      A
 Frequencies --   1655.1904              1658.6427              3107.7256
 Red. masses --      6.4399                 5.7262                 1.0294
 Frc consts  --     10.3951                 9.2815                 5.8575
 IR Inten    --      7.4745                25.4481                 0.0402

                     64                     65                     66
                      A                      A                      A
 Frequencies --   3209.0190              3213.1920              3218.9555
 Red. masses --      1.1072                 1.0866                 1.1083
 Frc consts  --      6.7175                 6.6099                 6.7664
 IR Inten    --      0.3032                 0.6831                 0.1098

                     67                     68                     69
                      A                      A                      A
 Frequencies --   3224.7370              3231.2377              3241.4567
 Red. masses --      1.0895                 1.0936                 1.0959
 Frc consts  --      6.6753                 6.7274                 6.7845
 IR Inten    --     14.8432                39.6594                13.3186

                     70                     71                     72
                      A                      A                      A
 Frequencies --   3257.9090              3333.9177              3535.1652
 Red. masses --      1.0932                 1.1006                 1.0764
 Frc consts  --      6.8363                 7.2078                 7.9261
 IR Inten    --      2.1195                 8.1728               148.8554

 - Thermochemistry -
 -------------------
 Temperature   298.150 Kelvin.  Pressure   1.00000 Atm.
 Atom     1 has atomic number  8 and mass  15.99491

 Molecular mass:   238.05245 amu.
 Principal axes and moments of inertia in atomic units:
                           1         2         3
     Eigenvalues --  1144.179299078.716159440.30314
           X            0.99999  -0.00513  -0.00172
           Y            0.00524   0.99739   0.07205
           Z            0.00134  -0.07205   0.99740
 This molecule is an asymmetric top.
 Rotational symmetry number  1.
 Warning -- assumption of classical behavior for rotation
           may cause significant error
 Rotational temperatures (Kelvin)      0.07570     0.00954     0.00917
 Rotational constants (GHZ):           1.57732     0.19879     0.19117
 Zero-point vibrational energy     513363.6 (Joules/Mol)
                                  122.69684 (Kcal/Mol)
 Warning -- explicit consideration of  20 degrees of freedom as
           vibrations may cause significant error
 Vibrational temperatures:     44.01    54.91    79.54   129.20   157.16
          (Kelvin)            183.35   323.80   337.25   371.60   403.09
                              431.52   491.11   569.23   580.44   602.23
                              655.60   685.58   710.84   760.77   807.88
                              903.68   957.87  1003.81  1014.38  1033.93
                             1065.64  1121.69  1138.95  1189.33  1220.37
                             1228.53  1349.02  1413.99  1446.99  1456.39
                             1456.90  1462.45  1468.07  1506.01  1528.39
                             1533.63  1595.97  1618.53  1711.68  1726.01
                             1763.88  1776.16  1859.43  1880.59  1935.96
                             1964.50  1991.49  2003.82  2049.18  2128.34
                             2130.83  2137.35  2179.44  2230.06  2290.95
                             2381.45  2386.42  4471.32  4617.06  4623.07
                             4631.36  4639.68  4649.03  4663.73  4687.40
                             4796.76  5086.31

 Zero-point correction=                           0.195530 (Hartree/Particle)
 Thermal correction to Energy=                    0.209468
 Thermal correction to Enthalpy=                  0.210412
 Thermal correction to Gibbs Free Energy=         0.152964
 Sum of electronic and zero-point Energies=          -1116.343083
 Sum of electronic and thermal Energies=             -1116.329145
 Sum of electronic and thermal Enthalpies=           -1116.328201
 Sum of electronic and thermal Free Energies=        -1116.385649

                     E (Thermal)             CV                S
                      KCal/Mol        Cal/Mol-Kelvin    Cal/Mol-Kelvin
 Total                  131.443             53.106            120.910
 Electronic               0.000              0.000              0.000
 Translational            0.889              2.981             42.303
 Rotational               0.889              2.981             32.950
 Vibrational            129.666             47.144             45.657
 Vibration     1          0.594              1.984              5.791
 Vibration     2          0.594              1.982              5.352
 Vibration     3          0.596              1.975              4.619
 Vibration     4          0.602              1.956              3.664
 Vibration     5          0.606              1.942              3.282
 Vibration     6          0.611              1.926              2.984
 Vibration     7          0.650              1.803              1.918
 Vibration     8          0.654              1.788              1.845
 Vibration     9          0.667              1.749              1.673
 Vibration    10          0.680              1.710              1.533
 Vibration    11          0.692              1.674              1.417
 Vibration    12          0.721              1.593              1.206
 Vibration    13          0.762              1.479              0.979
 Vibration    14          0.769              1.463              0.950
 Vibration    15          0.781              1.430              0.897
 Vibration    16          0.814              1.348              0.779
 Vibration    17          0.833              1.302              0.720
 Vibration    18          0.850              1.263              0.673
 Vibration    19          0.884              1.186              0.590
 Vibration    20          0.917              1.115              0.521

                           ! Non-Optimized Parameters !
 Normal termination of Gaussian 16 at Wed Sep 23 05:31:40 2020.

 ----------------------------------------------------------------------
 #p b3lyp/6-31G(d) scrf=(iefpcm,read,solvent=water) geom=allcheck guess
 =read
 ----------------------------------------------------------------------

 Structure from the checkpoint file:  "SM44_m0.n.10.pdb.xyz.mst.n.w.chk"
 --------------------
 SM44_m0.n.10.pdb.xyz
 --------------------
 Charge =  0 Multiplicity = 1

 SCF Done:  E(RB3LYP) =  -1116.53857757     A.U. after    7 cycles
 Normal termination of Gaussian 16 at Wed Sep 23 05:32:06 2020.

 -----------------------------
 #p B3LYP/6-31G* geom=allcheck
 -----------------------------

 Structure from the checkpoint file:  "SM44_m0.n.10.pdb.xyz.mst.n.w.chk"
 --------------------
 SM44_m0.n.10.pdb.xyz
 --------------------
 Charge =  0 Multiplicity = 1

 SCF Done:  E(RB3LYP) =  -1116.50347079     A.U. after   15 cycles
 Normal termination of Gaussian 16 at Wed Sep 23 05:32:33 2020.
 Gaussian 16:  ES64L-G16RevB.01 20-Dec-2017

 ----------------------------------------------------------------------
 #p mp2/aug-cc-pVDZ scf=(MaxCycle=2000,NoVarAcc,NoIncFock) maxdisk=120G
 B geom=allcheck
 ----------------------------------------------------------------------

 Structure from the checkpoint file:  "SM44_m0.n.10.pdb.xyz.mst.n.w.chk"
 --------------------
 SM44_m0.n.10.pdb.xyz
 --------------------
 Charge =  0 Multiplicity = 1

                         Standard orientation:
 ---------------------------------------------------------------------
 Center     Atomic      Atomic             Coordinates (Angstroms)
 Number     Number       Type             X           Y           Z
 ---------------------------------------------------------------------
      1          8           0        4.720231   -0.494512   -0.438761
      2         16           0        3.465386   -0.099380    0.211557
      3          7           0        2.290494   -0.197959   -1.009087
      4          6           0        0.963441    0.184879   -0.732983
      5          7           0        0.587330    1.493964   -0.718782
      6          7           0       -0.693991    1.561376   -0.477095
      7          6           0       -0.146589   -0.598523   -0.491830
      8          7           0       -1.156107    0.293335   -0.347760
      9          6           0       -2.535672    0.043756   -0.093201
     10          6           0       -3.294901    1.016407    0.561631
     11          6           0       -4.644470    0.770625    0.806301
     12          6           0       -5.226561   -0.437133    0.414023
     13          6           0       -4.453544   -1.401272   -0.235020
     14          6           0       -3.105943   -1.164007   -0.498852
     15          6           0        3.042876   -1.332835    1.447836
     16          8           0        3.343289    1.229784    0.819769
     17          1           0        2.377550   -1.080970   -1.511825
     18          1           0       -0.278040   -1.663632   -0.406774
     19          1           0       -2.826336    1.940996    0.871826
     20          1           0       -5.237916    1.522763    1.314158
     21          1           0       -6.275887   -0.625268    0.612878
     22          1           0       -4.898446   -2.338948   -0.548237
     23          1           0       -2.510941   -1.902222   -1.022890
     24          1           0        3.076306   -2.317077    0.981559
     25          1           0        2.047662   -1.115851    1.835053
     26          1           0        3.785821   -1.258284    2.242899
 ---------------------------------------------------------------------

 SCF Done:  E(RHF) =  -1111.63177317     A.U. after   17 cycles
 E2 =    -0.2476963611D+01 EUMP2 =    -0.11141087367764D+04

 The electronic state is 1-A.
 Alpha  occ. eigenvalues --  -92.22937 -20.56061 -20.55764 -15.69422 -15.66770
 Alpha  occ. eigenvalues --  -15.63501 -15.62450 -11.32645 -11.32175 -11.31536
 Alpha  occ. eigenvalues --  -11.29820 -11.27504 -11.27189 -11.26971 -11.26767
 Alpha  occ. eigenvalues --  -11.26556  -9.19746  -6.88270  -6.88237  -6.88119
 Alpha  occ. eigenvalues --   -1.46609  -1.45805  -1.33785  -1.27806  -1.24381
 Alpha  occ. eigenvalues --   -1.17267  -1.09741  -1.05244  -1.04973  -1.04076
 Alpha  occ. eigenvalues --   -0.91189  -0.89367  -0.86095  -0.83606  -0.81311
 Alpha  occ. eigenvalues --   -0.77395  -0.73246  -0.71872  -0.69421  -0.68483
 Alpha  occ. eigenvalues --   -0.67513  -0.66872  -0.65094  -0.63964  -0.63104
 Alpha  occ. eigenvalues --   -0.61828  -0.61585  -0.60401  -0.54624  -0.54122
 Alpha  occ. eigenvalues --   -0.53962  -0.52593  -0.50948  -0.49677  -0.49136
 Alpha  occ. eigenvalues --   -0.46896  -0.46669  -0.45168  -0.44278  -0.37625
 Alpha  occ. eigenvalues --   -0.36597  -0.33854
 Alpha virt. eigenvalues --    0.01576   0.02746   0.03312   0.03917   0.04466
 Alpha virt. eigenvalues --    0.05021   0.05688   0.06184   0.06864   0.07471
 Alpha virt. eigenvalues --    0.07898   0.08472   0.09643   0.09921   0.10623

 Mulliken charges:
               1
     1  O   -1.130751
     2  S    2.587495
     3  N   -0.836830
     4  C    0.662661
     5  N   -0.585452
     6  N   -0.426839
     7  C    1.090251
     8  N   -0.647600
     9  C    0.878508
    10  C    0.435357
    11  C    0.576691
    12  C    0.586266
    13  C    0.771757
    14  C    0.064406
    15  C    0.076852
    16  O   -1.127379
    17  H   -0.062512
    18  H   -0.498034
    19  H   -0.528241
    20  H   -0.426336
    21  H   -0.443362
    22  H   -0.437282
    23  H   -0.655115
    24  H    0.023281
    25  H    0.031332
    26  H    0.020876
 Sum of Mulliken charges =  -0.00000

 Dipole moment (field-independent basis, Debye):
    X=             -6.7154    Y=             -7.4750    Z=              1.6773  Tot=             10.1875
 Quadrupole moment (field-independent basis, Debye-Ang):
   XX=           -112.4189   YY=            -99.9477   ZZ=           -100.0099
   XY=            -10.8695   XZ=              3.3467   YZ=              2.9280

 Normal termination of Gaussian 16 at Wed Sep 23 05:47:00 2020.
