 Gaussian 16, Revision B.01,

 ----------------------------------------------------------------------
 #p b3lyp/6-31G(d) opt freq NoSymm scf=(MaxCycle=2000,NoVarAcc,NoIncFoc
 k) scrf=(iefpcm,read,solvent=water)
 ----------------------------------------------------------------------

 -------------------
 SM44_m0.n.4.pdb.xyz
 -------------------
 Symbolic Z-matrix:
 Charge =  0 Multiplicity = 1

 SCF Done:  E(RB3LYP) =  -1116.53858464     A.U. after   13 cycles
 SCF Done:  E(RB3LYP) =  -1116.53860511     A.U. after    9 cycles
 SCF Done:  E(RB3LYP) =  -1116.53860300     A.U. after    8 cycles
 SCF Done:  E(RB3LYP) =  -1116.53860452     A.U. after    8 cycles
 SCF Done:  E(RB3LYP) =  -1116.53860434     A.U. after    8 cycles
 SCF Done:  E(RB3LYP) =  -1116.53860597     A.U. after    8 cycles
 SCF Done:  E(RB3LYP) =  -1116.53860454     A.U. after    9 cycles
 SCF Done:  E(RB3LYP) =  -1116.53860419     A.U. after    7 cycles
 SCF Done:  E(RB3LYP) =  -1116.53860589     A.U. after    8 cycles
 SCF Done:  E(RB3LYP) =  -1116.53860372     A.U. after    9 cycles
 Optimization completed.
    -- Stationary point found.
 Normal termination of Gaussian 16 at Wed Sep 23 05:25:59 2020.

 --------------------------------------------------------------------
 #P Geom=AllCheck Guess=TCheck SCRF=Check GenChk RB3LYP/6-31G(d) Freq
 --------------------------------------------------------------------

 Structure from the checkpoint file:  "SM44_m0.n.4.pdb.xyz.mst.n.w.chk"
 -------------------
 SM44_m0.n.4.pdb.xyz
 -------------------
 Charge =  0 Multiplicity = 1

 SCF Done:  E(RB3LYP) =  -1116.53860372     A.U. after    1 cycles

  Exact polarizability: 267.883   8.231 185.473 -23.140  20.233 110.392
 Approx polarizability: 287.313   8.492 235.054 -31.514  28.612 131.293

                      1                      2                      3
                      A                      A                      A
 Frequencies --     33.1875                38.8214                53.8543
 Red. masses --      5.4295                 5.0980                 5.5759
 Frc consts  --      0.0035                 0.0045                 0.0095
 IR Inten    --      3.3487                 1.5854                 6.8155

                      4                      5                      6
                      A                      A                      A
 Frequencies --     88.6242               109.3080               126.5476
 Red. masses --      5.7118                 5.2303                 6.2456
 Frc consts  --      0.0264                 0.0368                 0.0589
 IR Inten    --     11.3857                 0.6497                 1.9387

                      7                      8                      9
                      A                      A                      A
 Frequencies --    223.0440               236.2460               258.3150
 Red. masses --      1.8629                 1.5052                 6.6456
 Frc consts  --      0.0546                 0.0495                 0.2613
 IR Inten    --      2.0436                 1.1637                 1.7736

                     10                     11                     12
                      A                      A                      A
 Frequencies --    279.8157               300.3010               341.1917
 Red. masses --      7.5712                 4.1141                 4.1369
 Frc consts  --      0.3493                 0.2186                 0.2837
 IR Inten    --      2.2184                 7.3553                 2.3498

                     13                     14                     15
                      A                      A                      A
 Frequencies --    395.5020               404.5673               418.6634
 Red. masses --      7.6454                 3.6493                 3.0382
 Frc consts  --      0.7046                 0.3519                 0.3138
 IR Inten    --      4.5658                37.6784                 0.1927

                     16                     17                     18
                      A                      A                      A
 Frequencies --    456.0690               477.5877               495.0447
 Red. masses --      5.0428                 2.8712                 4.9068
 Frc consts  --      0.6180                 0.3858                 0.7085
 IR Inten    --     16.5017                35.0674                89.4394

                     19                     20                     21
                      A                      A                      A
 Frequencies --    529.1084               562.0710               628.1837
 Red. masses --      3.6773                 5.2468                 6.3954
 Frc consts  --      0.6066                 0.9766                 1.4869
 IR Inten    --    104.4086                93.6095                 0.5110

                     22                     23                     24
                      A                      A                      A
 Frequencies --    665.4621               697.4120               705.0853
 Red. masses --      3.6555                 6.0600                 2.3458
 Frc consts  --      0.9538                 1.7366                 0.6871
 IR Inten    --      8.3743                19.0769                26.8994

                     25                     26                     27
                      A                      A                      A
 Frequencies --    718.1366               740.7752               779.2734
 Red. masses --      8.2793                 6.0391                 1.6128
 Frc consts  --      2.5157                 1.9525                 0.5771
 IR Inten    --     17.6648               136.8052                83.6004

                     28                     29                     30
                      A                      A                      A
 Frequencies --    791.5129               826.4874               848.2449
 Red. masses --      2.0183                 2.6565                 3.1129
 Frc consts  --      0.7450                 1.0691                 1.3196
 IR Inten    --     14.0480                 2.8802                89.8596

                     31                     32                     33
                      A                      A                      A
 Frequencies --    853.9893               937.6605               982.5111
 Red. masses --      1.2571                 1.3838                 1.3426
 Frc consts  --      0.5401                 0.7168                 0.7636
 IR Inten    --      0.4657                 5.6919                 0.2504

                     34                     35                     36
                      A                      A                      A
 Frequencies --   1005.9749              1012.1027              1013.1237
 Red. masses --      6.3707                 1.2696                 1.4494
 Frc consts  --      3.7985                 0.7662                 0.8765
 IR Inten    --     46.3471                 2.0317                64.8141

                     37                     38                     39
                      A                      A                      A
 Frequencies --   1015.2374              1020.4795              1046.9277
 Red. masses --      1.3479                 6.0817                 3.4902
 Frc consts  --      0.8186                 3.7315                 2.2539
 IR Inten    --      9.3750                 0.2227                 4.9042

                     40                     41                     42
                      A                      A                      A
 Frequencies --   1062.3572              1066.0366              1109.5831
 Red. masses --      2.0376                 4.1831                 1.5426
 Frc consts  --      1.3549                 2.8009                 1.1190
 IR Inten    --     57.0302                90.1252                11.9672

                     43                     44                     45
                      A                      A                      A
 Frequencies --   1124.5592              1190.2632              1200.1637
 Red. masses --     12.0117                 1.1015                 1.1855
 Frc consts  --      8.9499                 0.9194                 1.0061
 IR Inten    --    410.3846                 0.1547                 0.7415

                     46                     47                     48
                      A                      A                      A
 Frequencies --   1226.0555              1234.3041              1291.2617
 Red. masses --      2.2331                 3.1401                 5.6517
 Frc consts  --      1.9778                 2.8186                 5.5521
 IR Inten    --     12.1002                 5.0522               176.0367

                     49                     50                     51
                      A                      A                      A
 Frequencies --   1306.8207              1345.0507              1365.6514
 Red. masses --     11.9500                 2.4628                 2.5936
 Frc consts  --     12.0240                 2.6251                 2.8500
 IR Inten    --    226.8703                72.3910                 3.9208

                     52                     53                     54
                      A                      A                      A
 Frequencies --   1382.5459              1393.3651              1421.5085
 Red. masses --      3.0958                 1.1978                 2.1460
 Frc consts  --      3.4865                 1.3701                 2.5549
 IR Inten    --    119.3239                17.1318                17.3288

                     55                     56                     57
                      A                      A                      A
 Frequencies --   1479.6099              1481.7328              1484.6531
 Red. masses --      1.2763                 1.1045                 1.7337
 Frc consts  --      1.6463                 1.4288                 2.2515
 IR Inten    --     18.7998                 4.5666                18.8079

                     58                     59                     60
                      A                      A                      A
 Frequencies --   1514.5762              1550.2516              1591.6190
 Red. masses --      2.6005                 2.8028                 6.4095
 Frc consts  --      3.5148                 3.9687                 9.5664
 IR Inten    --     15.6439               131.6274                83.8889

                     61                     62                     63
                      A                      A                      A
 Frequencies --   1655.2276              1658.6533              3107.8656
 Red. masses --      6.4412                 5.7218                 1.0293
 Frc consts  --     10.3975                 9.2746                 5.8578
 IR Inten    --      7.1129                25.8629                 0.0429

                     64                     65                     66
                      A                      A                      A
 Frequencies --   3209.3769              3213.0412              3218.7428
 Red. masses --      1.1073                 1.0867                 1.1084
 Frc consts  --      6.7196                 6.6098                 6.7659
 IR Inten    --      0.2962                 0.7368                 0.1255

                     67                     68                     69
                      A                      A                      A
 Frequencies --   3225.1171              3231.7917              3242.3546
 Red. masses --      1.0896                 1.0937                 1.0955
 Frc consts  --      6.6773                 6.7305                 6.7854
 IR Inten    --     15.8406                39.7429                11.8284

                     70                     71                     72
                      A                      A                      A
 Frequencies --   3256.6190              3334.7941              3529.8787
 Red. masses --      1.0933                 1.1006                 1.0764
 Frc consts  --      6.8319                 7.2112                 7.9022
 IR Inten    --      2.2862                 8.1306               149.8385

 - Thermochemistry -
 -------------------
 Temperature   298.150 Kelvin.  Pressure   1.00000 Atm.
 Atom     1 has atomic number  8 and mass  15.99491

 Molecular mass:   238.05245 amu.
 Principal axes and moments of inertia in atomic units:
                           1         2         3
     Eigenvalues --  1142.052659083.913059443.82562
           X            0.99999  -0.00444   0.00104
           Y            0.00440   0.99930   0.03725
           Z           -0.00121  -0.03724   0.99931
 This molecule is an asymmetric top.
 Rotational symmetry number  1.
 Warning -- assumption of classical behavior for rotation
           may cause significant error
 Rotational temperatures (Kelvin)      0.07584     0.00953     0.00917
 Rotational constants (GHZ):           1.58026     0.19867     0.19110
 Zero-point vibrational energy     513328.9 (Joules/Mol)
                                  122.68854 (Kcal/Mol)
 Warning -- explicit consideration of  20 degrees of freedom as
           vibrations may cause significant error
 Vibrational temperatures:     47.75    55.86    77.48   127.51   157.27
          (Kelvin)            182.07   320.91   339.91   371.66   402.59
                              432.07   490.90   569.04   582.08   602.36
                              656.18   687.14   712.26   761.27   808.69
                              903.82   957.45  1003.42  1014.46  1033.24
                             1065.81  1121.20  1138.81  1189.13  1220.44
                             1228.70  1349.08  1413.61  1447.37  1456.19
                             1457.66  1460.70  1468.24  1506.30  1528.50
                             1533.79  1596.44  1617.99  1712.52  1726.77
                             1764.02  1775.89  1857.84  1880.22  1935.23
                             1964.87  1989.18  2004.74  2045.23  2128.83
                             2131.88  2136.08  2179.14  2230.47  2289.98
                             2381.50  2386.43  4471.53  4617.58  4622.85
                             4631.05  4640.22  4649.83  4665.03  4685.55
                             4798.02  5078.71

 Zero-point correction=                           0.195517 (Hartree/Particle)
 Thermal correction to Energy=                    0.209452
 Thermal correction to Enthalpy=                  0.210396
 Thermal correction to Gibbs Free Energy=         0.153003
 Sum of electronic and zero-point Energies=          -1116.343087
 Sum of electronic and thermal Energies=             -1116.329152
 Sum of electronic and thermal Enthalpies=           -1116.328207
 Sum of electronic and thermal Free Energies=        -1116.385601

                     E (Thermal)             CV                S
                      KCal/Mol        Cal/Mol-Kelvin    Cal/Mol-Kelvin
 Total                  131.433             53.101            120.795
 Electronic               0.000              0.000              0.000
 Translational            0.889              2.981             42.303
 Rotational               0.889              2.981             32.949
 Vibrational            129.656             47.140             45.542
 Vibration     1          0.594              1.983              5.629
 Vibration     2          0.594              1.981              5.318
 Vibration     3          0.596              1.976              4.671
 Vibration     4          0.601              1.957              3.690
 Vibration     5          0.606              1.942              3.281
 Vibration     6          0.611              1.927              2.998
 Vibration     7          0.649              1.806              1.934
 Vibration     8          0.655              1.785              1.831
 Vibration     9          0.667              1.749              1.673
 Vibration    10          0.680              1.711              1.535
 Vibration    11          0.693              1.673              1.415
 Vibration    12          0.721              1.593              1.207
 Vibration    13          0.762              1.480              0.979
 Vibration    14          0.770              1.460              0.946
 Vibration    15          0.782              1.430              0.897
 Vibration    16          0.814              1.347              0.778
 Vibration    17          0.834              1.300              0.717
 Vibration    18          0.851              1.261              0.671
 Vibration    19          0.884              1.186              0.589
 Vibration    20          0.918              1.113              0.520

                           ! Non-Optimized Parameters !
 Normal termination of Gaussian 16 at Wed Sep 23 05:31:50 2020.

 ----------------------------------------------------------------------
 #p b3lyp/6-31G(d) scrf=(iefpcm,read,solvent=water) geom=allcheck guess
 =read
 ----------------------------------------------------------------------

 Structure from the checkpoint file:  "SM44_m0.n.4.pdb.xyz.mst.n.w.chk"
 -------------------
 SM44_m0.n.4.pdb.xyz
 -------------------
 Charge =  0 Multiplicity = 1

 SCF Done:  E(RB3LYP) =  -1116.53859042     A.U. after    6 cycles
 Normal termination of Gaussian 16 at Wed Sep 23 05:32:16 2020.

 -----------------------------
 #p B3LYP/6-31G* geom=allcheck
 -----------------------------

 Structure from the checkpoint file:  "SM44_m0.n.4.pdb.xyz.mst.n.w.chk"
 -------------------
 SM44_m0.n.4.pdb.xyz
 -------------------
 Charge =  0 Multiplicity = 1

 SCF Done:  E(RB3LYP) =  -1116.50352036     A.U. after   15 cycles
 Normal termination of Gaussian 16 at Wed Sep 23 05:32:45 2020.
 Gaussian 16:  ES64L-G16RevB.01 20-Dec-2017

 ----------------------------------------------------------------------
 #p mp2/aug-cc-pVDZ scf=(MaxCycle=2000,NoVarAcc,NoIncFock) maxdisk=120G
 B geom=allcheck
 ----------------------------------------------------------------------

 Structure from the checkpoint file:  "SM44_m0.n.4.pdb.xyz.mst.n.w.chk"
 -------------------
 SM44_m0.n.4.pdb.xyz
 -------------------
 Charge =  0 Multiplicity = 1

                         Standard orientation:
 ---------------------------------------------------------------------
 Center     Atomic      Atomic             Coordinates (Angstroms)
 Number     Number       Type             X           Y           Z
 ---------------------------------------------------------------------
      1          8           0        4.717103   -0.516274   -0.436227
      2         16           0        3.467181   -0.098825    0.209512
      3          7           0        2.289654   -0.207795   -1.007142
      4          6           0        0.963018    0.177473   -0.731931
      5          7           0        0.588143    1.486845   -0.724200
      6          7           0       -0.692999    1.556859   -0.481811
      7          6           0       -0.147596   -0.603822   -0.486042
      8          7           0       -1.156149    0.289746   -0.346186
      9          6           0       -2.536266    0.042782   -0.092076
     10          6           0       -3.107629   -1.166086   -0.494562
     11          6           0       -4.456672   -1.400025   -0.231492
     12          6           0       -5.228371   -0.431576    0.413391
     13          6           0       -4.644281    0.776047    0.802056
     14          6           0       -3.294648    1.018368    0.558182
     15          6           0        3.035838   -1.305878    1.467800
     16          8           0        3.358126    1.241598    0.795209
     17          1           0        2.375717   -1.094362   -1.503628
     18          1           0       -0.280841   -1.668379   -0.396984
     19          1           0       -2.512241   -1.906564   -1.014765
     20          1           0       -4.903451   -2.337916   -0.541759
     21          1           0       -6.278333   -0.616548    0.611780
     22          1           0       -5.236606    1.531074    1.306695
     23          1           0       -2.825615    1.943514    0.866203
     24          1           0        3.060914   -2.298539    1.019266
     25          1           0        2.042769   -1.073882    1.851761
     26          1           0        3.780063   -1.223078    2.260808
 ---------------------------------------------------------------------

 SCF Done:  E(RHF) =  -1111.63183610     A.U. after   17 cycles
 E2 =    -0.2476960453D+01 EUMP2 =    -0.11141087965570D+04

 The electronic state is 1-A.
 Alpha  occ. eigenvalues --  -92.22932 -20.56063 -20.55746 -15.69431 -15.66780
 Alpha  occ. eigenvalues --  -15.63497 -15.62458 -11.32658 -11.32179 -11.31547
 Alpha  occ. eigenvalues --  -11.29800 -11.27525 -11.27212 -11.26963 -11.26759
 Alpha  occ. eigenvalues --  -11.26563  -9.19741  -6.88265  -6.88232  -6.88115
 Alpha  occ. eigenvalues --   -1.46614  -1.45805  -1.33779  -1.27813  -1.24385
 Alpha  occ. eigenvalues --   -1.17273  -1.09749  -1.05245  -1.04980  -1.04085
 Alpha  occ. eigenvalues --   -0.91197  -0.89374  -0.86102  -0.83615  -0.81314
 Alpha  occ. eigenvalues --   -0.77400  -0.73237  -0.71881  -0.69423  -0.68490
 Alpha  occ. eigenvalues --   -0.67522  -0.66875  -0.65091  -0.63972  -0.63108
 Alpha  occ. eigenvalues --   -0.61837  -0.61570  -0.60390  -0.54632  -0.54129
 Alpha  occ. eigenvalues --   -0.53970  -0.52603  -0.50945  -0.49651  -0.49164
 Alpha  occ. eigenvalues --   -0.46888  -0.46681  -0.45174  -0.44278  -0.37629
 Alpha  occ. eigenvalues --   -0.36604  -0.33862
 Alpha virt. eigenvalues --    0.01581   0.02746   0.03308   0.03921   0.04468
 Alpha virt. eigenvalues --    0.05013   0.05694   0.06188   0.06859   0.07476
 Alpha virt. eigenvalues --    0.07894   0.08468   0.09647   0.09912   0.10618

 Mulliken charges:
               1
     1  O   -1.130897
     2  S    2.589944
     3  N   -0.834540
     4  C    0.653840
     5  N   -0.583252
     6  N   -0.427818
     7  C    1.092208
     8  N   -0.645849
     9  C    0.877976
    10  C    0.066289
    11  C    0.770126
    12  C    0.586565
    13  C    0.577259
    14  C    0.434060
    15  C    0.077813
    16  O   -1.127396
    17  H   -0.063070
    18  H   -0.495936
    19  H   -0.655612
    20  H   -0.436583
    21  H   -0.443508
    22  H   -0.426800
    23  H   -0.528491
    24  H    0.022911
    25  H    0.030726
    26  H    0.020038
 Sum of Mulliken charges =  -0.00000

 Dipole moment (field-independent basis, Debye):
    X=             -6.7522    Y=             -7.4225    Z=              1.7550  Tot=             10.1866
 Quadrupole moment (field-independent basis, Debye-Ang):
   XX=           -112.5553   YY=           -100.0497   ZZ=            -99.9208
   XY=            -10.6770   XZ=              3.5254   YZ=              2.9666

 Normal termination of Gaussian 16 at Wed Sep 23 05:52:24 2020.
