 Gaussian 16, Revision B.01,

 ----------------------------------------------------------------------
 #p b3lyp/6-31G(d) opt freq NoSymm scf=(MaxCycle=2000,NoVarAcc,NoIncFoc
 k) scrf=(iefpcm,read,solvent=water)
 ----------------------------------------------------------------------

 -------------------
 SM44_m2.b.8.pdb.xyz
 -------------------
 Symbolic Z-matrix:
 Charge =  1 Multiplicity = 1

 SCF Done:  E(RB3LYP) =  -1116.98530223     A.U. after   13 cycles
 SCF Done:  E(RB3LYP) =  -1116.98526282     A.U. after    9 cycles
 SCF Done:  E(RB3LYP) =  -1116.98523613     A.U. after    9 cycles
 SCF Done:  E(RB3LYP) =  -1116.98530102     A.U. after    9 cycles
 SCF Done:  E(RB3LYP) =  -1116.98530304     A.U. after    8 cycles
 SCF Done:  E(RB3LYP) =  -1116.98521842     A.U. after   10 cycles
 SCF Done:  E(RB3LYP) =  -1116.98516274     A.U. after    9 cycles
 SCF Done:  E(RB3LYP) =  -1116.98530204     A.U. after   10 cycles
 SCF Done:  E(RB3LYP) =  -1116.98530299     A.U. after    8 cycles
 SCF Done:  E(RB3LYP) =  -1116.98511262     A.U. after   10 cycles
 SCF Done:  E(RB3LYP) =  -1116.98530206     A.U. after   10 cycles
 SCF Done:  E(RB3LYP) =  -1116.98530207     A.U. after    5 cycles
 SCF Done:  E(RB3LYP) =  -1116.98514894     A.U. after   10 cycles
 SCF Done:  E(RB3LYP) =  -1116.98515898     A.U. after    9 cycles
 SCF Done:  E(RB3LYP) =  -1116.98530204     A.U. after   10 cycles
 SCF Done:  E(RB3LYP) =  -1116.98515410     A.U. after   10 cycles
 Optimization completed.
    -- Stationary point found.
 Normal termination of Gaussian 16 at Thu Sep 24 14:58:08 2020.

 --------------------------------------------------------------------
 #P Geom=AllCheck Guess=TCheck SCRF=Check GenChk RB3LYP/6-31G(d) Freq
 --------------------------------------------------------------------

 Structure from the checkpoint file:  "SM44_m2.b.8.pdb.xyz.mst.b.w.chk"
 -------------------
 SM44_m2.b.8.pdb.xyz
 -------------------
 Charge =  1 Multiplicity = 1

 SCF Done:  E(RB3LYP) =  -1116.98515410     A.U. after    1 cycles

  Exact polarizability: 273.479   7.401 178.793 -19.275  27.121 112.465
 Approx polarizability: 288.837   5.806 228.347 -27.438  38.185 133.798

                      1                      2                      3
                      A                      A                      A
 Frequencies --     38.8036                43.2116                50.7898
 Red. masses --      5.9419                 4.2878                 5.4668
 Frc consts  --      0.0053                 0.0047                 0.0083
 IR Inten    --      6.1507                 4.8824                11.3939

                      4                      5                      6
                      A                      A                      A
 Frequencies --     69.0488               104.5738               123.5211
 Red. masses --      5.6159                 4.9684                 6.1562
 Frc consts  --      0.0158                 0.0320                 0.0553
 IR Inten    --      8.3379                 5.0158                 3.1106

                      7                      8                      9
                      A                      A                      A
 Frequencies --    233.5886               239.8413               256.3924
 Red. masses --      4.5228                 1.1583                 4.1595
 Frc consts  --      0.1454                 0.0393                 0.1611
 IR Inten    --      3.2092                 0.7039                 1.7382

                     10                     11                     12
                      A                      A                      A
 Frequencies --    275.3683               296.5850               341.4649
 Red. masses --      6.8135                 3.7229                 4.2653
 Frc consts  --      0.3044                 0.1929                 0.2930
 IR Inten    --      0.9117                11.0743                 0.2060

                     13                     14                     15
                      A                      A                      A
 Frequencies --    393.5044               403.0424               418.1490
 Red. masses --      6.1624                 4.7794                 2.9868
 Frc consts  --      0.5622                 0.4574                 0.3077
 IR Inten    --      2.5682                14.5147                 0.1006

                     16                     17                     18
                      A                      A                      A
 Frequencies --    452.6427               480.2414               502.4198
 Red. masses --      5.1246                 5.6902                 3.2418
 Frc consts  --      0.6186                 0.7732                 0.4821
 IR Inten    --     15.3160                47.9347                53.0560

                     19                     20                     21
                      A                      A                      A
 Frequencies --    533.4830               554.0355               626.7444
 Red. masses --      2.8212                 4.3196                 6.4260
 Frc consts  --      0.4731                 0.7812                 1.4872
 IR Inten    --    135.4230               121.1092                 0.5687

                     22                     23                     24
                      A                      A                      A
 Frequencies --    665.5581               684.2699               699.2129
 Red. masses --      2.5039                 2.7560                 2.2684
 Frc consts  --      0.6535                 0.7603                 0.6534
 IR Inten    --     17.7112                48.4320                66.1790

                     25                     26                     27
                      A                      A                      A
 Frequencies --    701.6622               711.0564               743.3580
 Red. masses --      4.0339                 2.1093                 6.6543
 Frc consts  --      1.1701                 0.6283                 2.1664
 IR Inten    --     36.0388                68.7944               140.1928

                     28                     29                     30
                      A                      A                      A
 Frequencies --    780.4687               784.1331               823.0321
 Red. masses --      1.6313                 2.1534                 2.0678
 Frc consts  --      0.5854                 0.7801                 0.8253
 IR Inten    --     83.9129                46.0297                11.7710

                     31                     32                     33
                      A                      A                      A
 Frequencies --    837.5180               849.9635               943.1978
 Red. masses --      3.6152                 1.2691                 1.3690
 Frc consts  --      1.4941                 0.5402                 0.7176
 IR Inten    --    133.4655                 0.2275                 5.9141

                     34                     35                     36
                      A                      A                      A
 Frequencies --    986.4971              1007.2451              1018.9777
 Red. masses --      1.3486                 7.7908                 1.3116
 Frc consts  --      0.7732                 4.6569                 0.8024
 IR Inten    --      0.6243                28.5371                26.8621

                     37                     38                     39
                      A                      A                      A
 Frequencies --   1019.0955              1022.5657              1023.1609
 Red. masses --      1.3417                 5.9431                 1.3484
 Frc consts  --      0.8210                 3.6614                 0.8317
 IR Inten    --     53.5119                 1.7943                16.8710

                     40                     41                     42
                      A                      A                      A
 Frequencies --   1053.9901              1079.1305              1111.2595
 Red. masses --      2.1715                 2.7708                 2.7653
 Frc consts  --      1.4213                 1.9011                 2.0120
 IR Inten    --      5.5545                80.2873                18.1055

                     43                     44                     45
                      A                      A                      A
 Frequencies --   1114.3008              1128.3587              1193.7182
 Red. masses --      1.5709                11.7475                 1.0928
 Frc consts  --      1.1493                 8.8123                 0.9175
 IR Inten    --     28.8569               364.4806                 0.1530

                     46                     47                     48
                      A                      A                      A
 Frequencies --   1205.4395              1221.9495              1248.8299
 Red. masses --      1.1531                 1.9771                 2.5507
 Frc consts  --      0.9872                 1.7393                 2.3438
 IR Inten    --      2.6123                66.8722                 2.4908

                     49                     50                     51
                      A                      A                      A
 Frequencies --   1314.3008              1343.4819              1356.4669
 Red. masses --      7.3928                 2.4701                 3.4261
 Frc consts  --      7.5240                 2.6269                 3.7142
 IR Inten    --    253.4428                17.7333               106.8464

                     52                     53                     54
                      A                      A                      A
 Frequencies --   1368.3305              1397.9690              1402.1985
 Red. masses --      3.0339                 1.3668                 1.7228
 Frc consts  --      3.3468                 1.5738                 1.9957
 IR Inten    --      2.7454                 9.7719                78.0518

                     55                     56                     57
                      A                      A                      A
 Frequencies --   1414.6030              1468.1059              1475.4169
 Red. masses --      2.8422                 3.0845                 1.0496
 Frc consts  --      3.3510                 3.9169                 1.3461
 IR Inten    --     67.9897                13.1080                 8.6991

                     58                     59                     60
                      A                      A                      A
 Frequencies --   1483.8958              1502.0887              1518.9337
 Red. masses --      1.0822                 2.0149                 2.6126
 Frc consts  --      1.4041                 2.6785                 3.5515
 IR Inten    --      6.7265                15.0513                19.6400

                     61                     62                     63
                      A                      A                      A
 Frequencies --   1542.4436              1647.4267              1653.9359
 Red. masses --      2.4261                 5.4478                 5.6357
 Frc consts  --      3.4008                 8.7114                 9.0832
 IR Inten    --     37.7728               262.1245                26.1048

                     64                     65                     66
                      A                      A                      A
 Frequencies --   1663.9552              3108.3671              3210.6745
 Red. masses --      5.8436                 1.0290                 1.1071
 Frc consts  --      9.5327                 5.8578                 6.7242
 IR Inten    --    168.0412                 0.4444                 1.6139

                     67                     68                     69
                      A                      A                      A
 Frequencies --   3219.5499              3223.4902              3232.6709
 Red. masses --      1.0874                 1.1094                 1.0896
 Frc consts  --      6.6412                 6.7918                 6.7086
 IR Inten    --      1.7900                 0.1923                11.7345

                     70                     71                     72
                      A                      A                      A
 Frequencies --   3238.3491              3246.9587              3259.8790
 Red. masses --      1.0933                 1.0961                 1.0940
 Frc consts  --      6.7552                 6.8084                 6.8497
 IR Inten    --     27.2873                 8.3542                 1.1954

                     73                     74                     75
                      A                      A                      A
 Frequencies --   3355.0920              3535.6158              3541.2828
 Red. masses --      1.1018                 1.0862                 1.0780
 Frc consts  --      7.3077                 7.9999                 7.9653
 IR Inten    --     26.9906               645.2317               151.0965

 - Thermochemistry -
 -------------------
 Temperature   298.150 Kelvin.  Pressure   1.00000 Atm.
 Atom     1 has atomic number  8 and mass  15.99491

 Molecular mass:   239.06027 amu.
 Principal axes and moments of inertia in atomic units:
                           1         2         3
     Eigenvalues --  1087.445299322.189199643.89653
           X            0.99998  -0.00548   0.00007
           Y            0.00542   0.98753  -0.15731
           Z            0.00079   0.15731   0.98755
 This molecule is an asymmetric top.
 Rotational symmetry number  1.
 Warning -- assumption of classical behavior for rotation
           may cause significant error
 Rotational temperatures (Kelvin)      0.07965     0.00929     0.00898
 Rotational constants (GHZ):           1.65962     0.19360     0.18714
 Zero-point vibrational energy     549210.9 (Joules/Mol)
                                  131.26454 (Kcal/Mol)
 Warning -- explicit consideration of  20 degrees of freedom as
           vibrations may cause significant error
 Vibrational temperatures:     55.83    62.17    73.08    99.35   150.46
          (Kelvin)            177.72   336.08   345.08   368.89   396.19
                              426.72   491.29   566.17   579.89   601.62
                              651.25   690.96   722.87   767.56   797.13
                              901.75   957.59   984.51  1006.01  1009.54
                             1023.05  1069.53  1122.92  1128.19  1184.16
                             1205.00  1222.91  1357.05  1419.35  1449.20
                             1466.08  1466.25  1471.24  1472.10  1516.46
                             1552.63  1598.85  1603.23  1623.46  1717.49
                             1734.36  1758.11  1796.79  1890.99  1932.97
                             1951.65  1968.72  2011.37  2017.45  2035.30
                             2112.28  2122.80  2135.00  2161.17  2185.41
                             2219.23  2370.28  2379.64  2394.06  4472.25
                             4619.44  4632.21  4637.88  4651.09  4659.26
                             4671.65  4690.24  4827.23  5086.96  5095.12

 Zero-point correction=                           0.209183 (Hartree/Particle)
 Thermal correction to Energy=                    0.223266
 Thermal correction to Enthalpy=                  0.224211
 Thermal correction to Gibbs Free Energy=         0.166579
 Sum of electronic and zero-point Energies=          -1116.775971
 Sum of electronic and thermal Energies=             -1116.761888
 Sum of electronic and thermal Enthalpies=           -1116.760944
 Sum of electronic and thermal Free Energies=        -1116.818575

                     E (Thermal)             CV                S
                      KCal/Mol        Cal/Mol-Kelvin    Cal/Mol-Kelvin
 Total                  140.102             53.940            121.295
 Electronic               0.000              0.000              0.000
 Translational            0.889              2.981             42.316
 Rotational               0.889              2.981             32.947
 Vibrational            138.324             47.978             46.032
 Vibration     1          0.594              1.981              5.319
 Vibration     2          0.595              1.980              5.106
 Vibration     3          0.595              1.977              4.786
 Vibration     4          0.598              1.969              4.180
 Vibration     5          0.605              1.946              3.367
 Vibration     6          0.610              1.929              3.045
 Vibration     7          0.654              1.790              1.851
 Vibration     8          0.657              1.779              1.804
 Vibration     9          0.666              1.752              1.686
 Vibration    10          0.677              1.719              1.562
 Vibration    11          0.690              1.680              1.436
 Vibration    12          0.721              1.593              1.205
 Vibration    13          0.761              1.484              0.987
 Vibration    14          0.768              1.464              0.952
 Vibration    15          0.781              1.431              0.898
 Vibration    16          0.811              1.355              0.788
 Vibration    17          0.837              1.294              0.709
 Vibration    18          0.858              1.245              0.652
 Vibration    19          0.888              1.176              0.579
 Vibration    20          0.909              1.131              0.536

 Optimization completed.
    -- Stationary point found.
 Normal termination of Gaussian 16 at Thu Sep 24 15:04:27 2020.

 ----------------------------------------------------------------------
 #p b3lyp/6-31G(d) scrf=(iefpcm,read,solvent=water) geom=allcheck guess
 =read
 ----------------------------------------------------------------------

 Structure from the checkpoint file:  "SM44_m2.b.8.pdb.xyz.mst.b.w.chk"
 -------------------
 SM44_m2.b.8.pdb.xyz
 -------------------
 Charge =  1 Multiplicity = 1

 SCF Done:  E(RB3LYP) =  -1116.98515996     A.U. after    7 cycles
 Normal termination of Gaussian 16 at Thu Sep 24 15:04:58 2020.

 -----------------------------
 #p B3LYP/6-31G* geom=allcheck
 -----------------------------

 Structure from the checkpoint file:  "SM44_m2.b.8.pdb.xyz.mst.b.w.chk"
 -------------------
 SM44_m2.b.8.pdb.xyz
 -------------------
 Charge =  1 Multiplicity = 1

 SCF Done:  E(RB3LYP) =  -1116.87956084     A.U. after   16 cycles
 Normal termination of Gaussian 16 at Thu Sep 24 15:05:33 2020.
 Gaussian 16:  ES64L-G16RevB.01 20-Dec-2017

 ----------------------------------------------------------------------
 #p mp2/aug-cc-pVDZ scf=(MaxCycle=2000,NoVarAcc,NoIncFock) maxdisk=120G
 B geom=allcheck
 ----------------------------------------------------------------------

 Structure from the checkpoint file:  "SM44_m2.b.8.pdb.xyz.mst.b.w.chk"
 -------------------
 SM44_m2.b.8.pdb.xyz
 -------------------
 Charge =  1 Multiplicity = 1

                         Standard orientation:
 ---------------------------------------------------------------------
 Center     Atomic      Atomic             Coordinates (Angstroms)
 Number     Number       Type             X           Y           Z
 ---------------------------------------------------------------------
      1          8           0        4.729557   -0.499455   -0.499706
      2         16           0        3.515897   -0.041545    0.174139
      3          7           0        2.229465   -0.594666   -0.819093
      4          6           0        0.941122   -0.129081   -0.630988
      5          7           0        0.579484    1.173101   -0.789678
      6          7           0       -0.706569    1.380033   -0.608457
      7          6           0       -0.235942   -0.783193   -0.331276
      8          7           0       -1.194890    0.181337   -0.343699
      9          6           0       -2.596554    0.021144   -0.083789
     10          6           0       -3.300004    1.073688    0.501654
     11          6           0       -4.659803    0.906429    0.752766
     12          6           0       -5.293990   -0.296365    0.432376
     13          6           0       -4.569527   -1.338313   -0.150044
     14          6           0       -3.210548   -1.185082   -0.418666
     15          6           0        3.345751   -0.905694    1.736540
     16          8           0        3.261870    1.387195    0.375864
     17          1           0        2.288142   -1.596606   -1.006301
     18          1           0       -0.434871   -1.815956   -0.106229
     19          1           0       -2.788143    1.991483    0.759445
     20          1           0       -5.219361    1.714521    1.209333
     21          1           0       -6.351351   -0.421206    0.636904
     22          1           0       -5.060088   -2.270126   -0.405977
     23          1           0       -2.648280   -1.979823   -0.893524
     24          1           0        3.430705   -1.975210    1.548153
     25          1           0        2.381384   -0.653705    2.176473
     26          1           0        4.161154   -0.560835    2.373964
     27          1           0        1.179487    1.970418   -1.012673
 ---------------------------------------------------------------------

 SCF Done:  E(RHF) =  -1112.00306266     A.U. after   17 cycles
 E2 =    -0.2469881227D+01 EUMP2 =    -0.11144729438912D+04

 The electronic state is 1-A.
 Alpha  occ. eigenvalues --  -92.37210 -20.70484 -20.69550 -15.89743 -15.87917
 Alpha  occ. eigenvalues --  -15.87687 -15.79362 -11.53849 -11.48541 -11.44817
 Alpha  occ. eigenvalues --  -11.42356 -11.39886 -11.39359 -11.38269 -11.38111
 Alpha  occ. eigenvalues --  -11.37982  -9.34002  -7.02521  -7.02502  -7.02344
 Alpha  occ. eigenvalues --   -1.68591  -1.60301  -1.48149  -1.47380  -1.42457
 Alpha  occ. eigenvalues --   -1.30477  -1.29443  -1.19787  -1.18266  -1.16773
 Alpha  occ. eigenvalues --   -1.09567  -1.07646  -1.02192  -0.98141  -0.96600
 Alpha  occ. eigenvalues --   -0.94337  -0.89446  -0.88257  -0.87672  -0.86486
 Alpha  occ. eigenvalues --   -0.82831  -0.81900  -0.81252  -0.78742  -0.77285
 Alpha  occ. eigenvalues --   -0.75228  -0.74471  -0.73832  -0.73508  -0.71983
 Alpha  occ. eigenvalues --   -0.70101  -0.66655  -0.65668  -0.64580  -0.64093
 Alpha  occ. eigenvalues --   -0.63191  -0.62470  -0.60799  -0.60407  -0.53941
 Alpha  occ. eigenvalues --   -0.48078  -0.47751
 Alpha virt. eigenvalues --   -0.09690  -0.08153  -0.06051  -0.05751  -0.05078
 Alpha virt. eigenvalues --   -0.03956  -0.03816  -0.03401  -0.02866  -0.02418
 Alpha virt. eigenvalues --   -0.02028  -0.01883  -0.01434  -0.00569  -0.00480

 Mulliken charges:
               1
     1  O   -1.065332
     2  S    2.587241
     3  N   -0.780789
     4  C    0.438909
     5  N   -0.366271
     6  N   -0.295040
     7  C    1.453416
     8  N   -0.579017
     9  C    0.954942
    10  C    0.379405
    11  C    0.589646
    12  C    0.580177
    13  C    0.758571
    14  C    0.110410
    15  C    0.089283
    16  O   -1.128126
    17  H   -0.032299
    18  H   -0.468342
    19  H   -0.521204
    20  H   -0.405659
    21  H   -0.416792
    22  H   -0.412017
    23  H   -0.640077
    24  H    0.041867
    25  H    0.035479
    26  H    0.057046
    27  H    0.034575
 Sum of Mulliken charges =   1.00000

 Dipole moment (field-independent basis, Debye):
    X=             -4.9783    Y=             -3.6597    Z=              1.5671  Tot=              6.3744
 Quadrupole moment (field-independent basis, Debye-Ang):
   XX=            -68.3664   YY=            -83.0543   ZZ=            -93.2616
   XY=             -5.8670   XZ=              7.0259   YZ=             -1.1167

 Normal termination of Gaussian 16 at Thu Sep 24 15:23:39 2020.
