 Gaussian 16, Revision B.01,

 ----------------------------------------------------------------------
 #p b3lyp/6-31G(d) opt freq NoSymm scf=(MaxCycle=2000,NoVarAcc,NoIncFoc
 k) scrf=(iefpcm,read,solvent=water)
 ----------------------------------------------------------------------

 -------------------
 SM44_m0.n.6.pdb.xyz
 -------------------
 Symbolic Z-matrix:
 Charge =  0 Multiplicity = 1

 SCF Done:  E(RB3LYP) =  -1116.53780333     A.U. after   13 cycles
 SCF Done:  E(RB3LYP) =  -1116.53790322     A.U. after   10 cycles
 SCF Done:  E(RB3LYP) =  -1116.53801417     A.U. after   10 cycles
 SCF Done:  E(RB3LYP) =  -1116.53805764     A.U. after    9 cycles
 SCF Done:  E(RB3LYP) =  -1116.53809550     A.U. after    9 cycles
 SCF Done:  E(RB3LYP) =  -1116.53811895     A.U. after    9 cycles
 SCF Done:  E(RB3LYP) =  -1116.53813022     A.U. after    9 cycles
 SCF Done:  E(RB3LYP) =  -1116.53793526     A.U. after   13 cycles
 SCF Done:  E(RB3LYP) =  -1116.53817842     A.U. after   13 cycles
 SCF Done:  E(RB3LYP) =  -1116.53799772     A.U. after   13 cycles
 SCF Done:  E(RB3LYP) =  -1116.53821040     A.U. after    9 cycles
 SCF Done:  E(RB3LYP) =  -1116.53819479     A.U. after    9 cycles
 SCF Done:  E(RB3LYP) =  -1116.53818599     A.U. after    8 cycles
 SCF Done:  E(RB3LYP) =  -1116.53820974     A.U. after    9 cycles
 SCF Done:  E(RB3LYP) =  -1116.53821036     A.U. after    8 cycles
 SCF Done:  E(RB3LYP) =  -1116.53818946     A.U. after   10 cycles
 Optimization completed.
    -- Stationary point found.
 Normal termination of Gaussian 16 at Wed Sep 23 05:39:48 2020.

 --------------------------------------------------------------------
 #P Geom=AllCheck Guess=TCheck SCRF=Check GenChk RB3LYP/6-31G(d) Freq
 --------------------------------------------------------------------

 Structure from the checkpoint file:  "SM44_m0.n.6.pdb.xyz.mst.n.w.chk"
 -------------------
 SM44_m0.n.6.pdb.xyz
 -------------------
 Charge =  0 Multiplicity = 1

 SCF Done:  E(RB3LYP) =  -1116.53818946     A.U. after    1 cycles

  Exact polarizability: 273.575  10.262 195.103  -9.691  -2.435  96.086
 Approx polarizability: 288.417  15.597 245.848  -8.573   1.609 119.350

                      1                      2                      3
                      A                      A                      A
 Frequencies --     29.3599                38.4500                52.8417
 Red. masses --      4.7710                 6.6707                 5.7350
 Frc consts  --      0.0024                 0.0058                 0.0094
 IR Inten    --      3.1590                11.8296                 3.7860

                      4                      5                      6
                      A                      A                      A
 Frequencies --     68.3926                97.7302               137.3297
 Red. masses --      5.8918                 5.7614                 5.9514
 Frc consts  --      0.0162                 0.0324                 0.0661
 IR Inten    --      5.2553                 2.2091                11.0718

                      7                      8                      9
                      A                      A                      A
 Frequencies --    225.4015               238.3624               240.4928
 Red. masses --      2.5242                 5.3854                 1.1983
 Frc consts  --      0.0756                 0.1803                 0.0408
 IR Inten    --      4.3727                 7.5289                 0.8963

                     10                     11                     12
                      A                      A                      A
 Frequencies --    285.4598               315.0340               338.5899
 Red. masses --      5.9264                 5.3838                 5.2345
 Frc consts  --      0.2845                 0.3148                 0.3536
 IR Inten    --      2.6823                 4.1802                 0.8434

                     13                     14                     15
                      A                      A                      A
 Frequencies --    378.1638               405.6567               419.9421
 Red. masses --      6.2296                 3.4228                 3.0258
 Frc consts  --      0.5249                 0.3319                 0.3144
 IR Inten    --     20.5499                39.4365                 0.1868

                     16                     17                     18
                      A                      A                      A
 Frequencies --    456.3260               480.1557               510.0092
 Red. masses --      6.3202                 5.6041                 7.0536
 Frc consts  --      0.7754                 0.7612                 1.0810
 IR Inten    --     20.0682                44.9652                87.2192

                     19                     20                     21
                      A                      A                      A
 Frequencies --    538.3515               591.4874               628.0897
 Red. masses --      3.3973                 4.5653                 6.3785
 Frc consts  --      0.5801                 0.9410                 1.4826
 IR Inten    --     23.5408               134.8528                 1.0807

                     22                     23                     24
                      A                      A                      A
 Frequencies --    680.2114               693.8497               705.3419
 Red. masses --      3.4693                 5.9781                 2.3891
 Frc consts  --      0.9457                 1.6957                 0.7003
 IR Inten    --     14.2072                17.7134                17.1269

                     25                     26                     27
                      A                      A                      A
 Frequencies --    711.5118               747.3548               780.2731
 Red. masses --      6.4026                 6.0509                 1.6180
 Frc consts  --      1.9097                 1.9912                 0.5804
 IR Inten    --      8.4063                83.0335                79.2613

                     28                     29                     30
                      A                      A                      A
 Frequencies --    803.7495               829.2794               855.1715
 Red. masses --      1.4636                 4.6171                 1.2515
 Frc consts  --      0.5571                 1.8708                 0.5393
 IR Inten    --     44.3574                83.6990                 0.0955

                     31                     32                     33
                      A                      A                      A
 Frequencies --    876.0354               937.7934               983.1707
 Red. masses --      2.1060                 1.3874                 1.3447
 Frc consts  --      0.9523                 0.7189                 0.7658
 IR Inten    --    142.2044                 6.2356                 0.3997

                     34                     35                     36
                      A                      A                      A
 Frequencies --   1007.1530              1012.6161              1013.7617
 Red. masses --      7.4546                 1.2704                 1.3673
 Frc consts  --      4.4552                 0.7675                 0.8279
 IR Inten    --     23.4316                 0.3676                21.6172

                     37                     38                     39
                      A                      A                      A
 Frequencies --   1019.7985              1020.4069              1048.7673
 Red. masses --      1.8961                 2.9296                 2.7571
 Frc consts  --      1.1618                 1.7972                 1.7867
 IR Inten    --     29.6271                19.4057                 4.3184

                     40                     41                     42
                      A                      A                      A
 Frequencies --   1060.4387              1065.3139              1106.6414
 Red. masses --      2.3746                 3.7763                 1.5462
 Frc consts  --      1.5733                 2.5251                 1.1157
 IR Inten    --    132.9107                 6.2741                21.1068

                     43                     44                     45
                      A                      A                      A
 Frequencies --   1121.0928              1187.1740              1196.7463
 Red. masses --      9.2823                 1.1256                 1.1617
 Frc consts  --      6.8737                 0.9347                 0.9803
 IR Inten    --    246.0811                 0.0502                 0.1922

                     46                     47                     48
                      A                      A                      A
 Frequencies --   1226.5460              1240.4670              1275.2549
 Red. masses --      4.1876                 2.0871                 6.9891
 Frc consts  --      3.7117                 1.8922                 6.6968
 IR Inten    --      2.8733                 6.4311               402.8583

                     49                     50                     51
                      A                      A                      A
 Frequencies --   1292.0352              1329.2437              1363.9208
 Red. masses --     10.9697                 2.8515                 1.8252
 Frc consts  --     10.7893                 2.9685                 2.0005
 IR Inten    --     20.3888                67.6147                 6.6839

                     52                     53                     54
                      A                      A                      A
 Frequencies --   1366.5067              1397.6879              1447.7561
 Red. masses --      4.1596                 1.1971                 2.5013
 Frc consts  --      4.5765                 1.3778                 3.0889
 IR Inten    --      8.9332                 9.1726               245.7338

                     55                     56                     57
                      A                      A                      A
 Frequencies --   1478.4446              1480.7902              1491.2153
 Red. masses --      1.2125                 1.0491                 1.7766
 Frc consts  --      1.5615                 1.3553                 2.3276
 IR Inten    --      3.8393                13.0130                23.9325

                     58                     59                     60
                      A                      A                      A
 Frequencies --   1514.8853              1549.8650              1606.8147
 Red. masses --      2.5511                 2.8449                 6.1243
 Frc consts  --      3.4493                 4.0263                 9.3162
 IR Inten    --     45.4897               100.1133                89.7125

                     61                     62                     63
                      A                      A                      A
 Frequencies --   1655.3089              1657.1916              3113.1638
 Red. masses --      6.3979                 5.7613                 1.0295
 Frc consts  --     10.3287                 9.3222                 5.8785
 IR Inten    --     14.2985                20.6115                 0.1311

                     64                     65                     66
                      A                      A                      A
 Frequencies --   3212.9751              3213.9315              3220.7602
 Red. masses --      1.0863                 1.1069                 1.0898
 Frc consts  --      6.6071                 6.7363                 6.6608
 IR Inten    --      0.5543                 0.2051                16.4430

                     67                     68                     69
                      A                      A                      A
 Frequencies --   3227.2732              3230.3617              3239.2097
 Red. masses --      1.1088                 1.0937                 1.0959
 Frc consts  --      6.8044                 6.7247                 6.7751
 IR Inten    --      0.0186                40.8337                13.0928

                     70                     71                     72
                      A                      A                      A
 Frequencies --   3252.0614              3344.8401              3469.1908
 Red. masses --      1.0934                 1.1006                 1.0751
 Frc consts  --      6.8132                 7.2549                 7.6237
 IR Inten    --      2.6499                 9.7433               141.5412

 - Thermochemistry -
 -------------------
 Temperature   298.150 Kelvin.  Pressure   1.00000 Atm.
 Atom     1 has atomic number  8 and mass  15.99491

 Molecular mass:   238.05245 amu.
 Principal axes and moments of inertia in atomic units:
                           1         2         3
     Eigenvalues --  1217.273598648.554939380.23236
           X            0.99968   0.02433   0.00652
           Y           -0.02475   0.99698   0.07358
           Z           -0.00471  -0.07372   0.99727
 This molecule is an asymmetric top.
 Rotational symmetry number  1.
 Warning -- assumption of classical behavior for rotation
           may cause significant error
 Rotational temperatures (Kelvin)      0.07115     0.01001     0.00923
 Rotational constants (GHZ):           1.48261     0.20868     0.19240
 Zero-point vibrational energy     513419.2 (Joules/Mol)
                                  122.71012 (Kcal/Mol)
 Warning -- explicit consideration of  20 degrees of freedom as
           vibrations may cause significant error
 Vibrational temperatures:     42.24    55.32    76.03    98.40   140.61
          (Kelvin)            197.59   324.30   342.95   346.02   410.71
                              453.26   487.16   544.09   583.65   604.20
                              656.55   690.84   733.79   774.57   851.02
                              903.68   978.67   998.29  1014.83  1023.71
                             1075.28  1122.64  1156.42  1193.15  1230.40
                             1260.42  1349.28  1414.56  1449.07  1456.93
                             1458.58  1467.26  1468.14  1508.94  1525.73
                             1532.75  1592.21  1613.00  1708.08  1721.85
                             1764.73  1784.76  1834.81  1858.95  1912.49
                             1962.38  1966.10  2010.96  2083.00  2127.15
                             2130.53  2145.53  2179.58  2229.91  2311.85
                             2381.62  2384.33  4479.15  4622.75  4624.13
                             4633.96  4643.33  4647.77  4660.50  4678.99
                             4812.48  4991.39

 Zero-point correction=                           0.195551 (Hartree/Particle)
 Thermal correction to Energy=                    0.209500
 Thermal correction to Enthalpy=                  0.210444
 Thermal correction to Gibbs Free Energy=         0.152689
 Sum of electronic and zero-point Energies=          -1116.342638
 Sum of electronic and thermal Energies=             -1116.328689
 Sum of electronic and thermal Enthalpies=           -1116.327745
 Sum of electronic and thermal Free Energies=        -1116.385501

                     E (Thermal)             CV                S
                      KCal/Mol        Cal/Mol-Kelvin    Cal/Mol-Kelvin
 Total                  131.463             52.934            121.557
 Electronic               0.000              0.000              0.000
 Translational            0.889              2.981             42.303
 Rotational               0.889              2.981             32.957
 Vibrational            129.686             46.972             46.297
 Vibration     1          0.593              1.984              5.872
 Vibration     2          0.594              1.982              5.337
 Vibration     3          0.596              1.976              4.708
 Vibration     4          0.598              1.969              4.199
 Vibration     5          0.603              1.951              3.499
 Vibration     6          0.614              1.916              2.841
 Vibration     7          0.650              1.802              1.915
 Vibration     8          0.656              1.782              1.815
 Vibration     9          0.658              1.778              1.799
 Vibration    10          0.683              1.701              1.501
 Vibration    11          0.702              1.645              1.336
 Vibration    12          0.719              1.598              1.219
 Vibration    13          0.748              1.517              1.047
 Vibration    14          0.771              1.458              0.942
 Vibration    15          0.783              1.427              0.892
 Vibration    16          0.815              1.347              0.777
 Vibration    17          0.837              1.294              0.710
 Vibration    18          0.865              1.228              0.634
 Vibration    19          0.893              1.165              0.569
 Vibration    20          0.949              1.050              0.465

                           ! Non-Optimized Parameters !
 Normal termination of Gaussian 16 at Wed Sep 23 05:45:32 2020.

 ----------------------------------------------------------------------
 #p b3lyp/6-31G(d) scrf=(iefpcm,read,solvent=water) geom=allcheck guess
 =read
 ----------------------------------------------------------------------

 Structure from the checkpoint file:  "SM44_m0.n.6.pdb.xyz.mst.n.w.chk"
 -------------------
 SM44_m0.n.6.pdb.xyz
 -------------------
 Charge =  0 Multiplicity = 1

 SCF Done:  E(RB3LYP) =  -1116.53812859     A.U. after    7 cycles
 Normal termination of Gaussian 16 at Wed Sep 23 05:46:02 2020.

 -----------------------------
 #p B3LYP/6-31G* geom=allcheck
 -----------------------------

 Structure from the checkpoint file:  "SM44_m0.n.6.pdb.xyz.mst.n.w.chk"
 -------------------
 SM44_m0.n.6.pdb.xyz
 -------------------
 Charge =  0 Multiplicity = 1

 SCF Done:  E(RB3LYP) =  -1116.51234282     A.U. after   15 cycles
 Normal termination of Gaussian 16 at Wed Sep 23 05:46:31 2020.
 Gaussian 16:  ES64L-G16RevB.01 20-Dec-2017

 ----------------------------------------------------------------------
 #p mp2/aug-cc-pVDZ scf=(MaxCycle=2000,NoVarAcc,NoIncFock) maxdisk=120G
 B geom=allcheck
 ----------------------------------------------------------------------

 Structure from the checkpoint file:  "SM44_m0.n.6.pdb.xyz.mst.n.w.chk"
 -------------------
 SM44_m0.n.6.pdb.xyz
 -------------------
 Charge =  0 Multiplicity = 1

                         Standard orientation:
 ---------------------------------------------------------------------
 Center     Atomic      Atomic             Coordinates (Angstroms)
 Number     Number       Type             X           Y           Z
 ---------------------------------------------------------------------
      1          8           0        2.509467    1.630342    0.334356
      2         16           0        3.277713    0.384730    0.206012
      3          7           0        2.317514   -0.676591   -0.733363
      4          6           0        0.959631   -0.793524   -0.377556
      5          7           0        0.453061   -1.923750    0.186162
      6          7           0       -0.836478   -1.772325    0.348571
      7          6           0       -0.064856    0.109020   -0.568161
      8          7           0       -1.160658   -0.534944   -0.094134
      9          6           0       -2.506863   -0.071860   -0.036816
     10          6           0       -2.761479    1.296027    0.073453
     11          6           0       -4.082529    1.739527    0.117404
     12          6           0       -5.135940    0.824867    0.067201
     13          6           0       -4.865807   -0.541956   -0.033065
     14          6           0       -3.550240   -0.998936   -0.092918
     15          6           0        4.660568    0.619060   -0.901733
     16          8           0        3.760722   -0.263843    1.437259
     17          1           0        2.772372   -1.593749   -0.782422
     18          1           0       -0.093884    1.093155   -1.001439
     19          1           0       -1.942232    2.002291    0.137901
     20          1           0       -4.284369    2.801688    0.201735
     21          1           0       -6.161454    1.174793    0.106334
     22          1           0       -5.680075   -1.257118   -0.075884
     23          1           0       -3.325618   -2.053609   -0.186115
     24          1           0        4.296601    1.076386   -1.820010
     25          1           0        5.122232   -0.348460   -1.098517
     26          1           0        5.362530    1.276870   -0.388201
 ---------------------------------------------------------------------

 SCF Done:  E(RHF) =  -1111.63913178     A.U. after   17 cycles
 E2 =    -0.2477203035D+01 EUMP2 =    -0.11141163348171D+04

 The electronic state is 1-A.
 Alpha  occ. eigenvalues --  -92.23222 -20.56692 -20.56360 -15.68597 -15.65767
 Alpha  occ. eigenvalues --  -15.63447 -15.61962 -11.31640 -11.31227 -11.30073
 Alpha  occ. eigenvalues --  -11.30040 -11.26517 -11.26279 -11.26178 -11.26007
 Alpha  occ. eigenvalues --  -11.25765  -9.20110  -6.88616  -6.88584  -6.88482
 Alpha  occ. eigenvalues --   -1.46395  -1.45440  -1.34055  -1.27539  -1.23576
 Alpha  occ. eigenvalues --   -1.16359  -1.09296  -1.05405  -1.04078  -1.03275
 Alpha  occ. eigenvalues --   -0.90477  -0.88495  -0.85309  -0.82034  -0.81741
 Alpha  occ. eigenvalues --   -0.76673  -0.72586  -0.70898  -0.68653  -0.68098
 Alpha  occ. eigenvalues --   -0.66851  -0.66065  -0.64931  -0.63350  -0.61845
 Alpha  occ. eigenvalues --   -0.61299  -0.60882  -0.60861  -0.54756  -0.53743
 Alpha  occ. eigenvalues --   -0.53240  -0.52162  -0.51669  -0.50630  -0.49039
 Alpha  occ. eigenvalues --   -0.47160  -0.46791  -0.45164  -0.43559  -0.36004
 Alpha  occ. eigenvalues --   -0.35673  -0.32996
 Alpha virt. eigenvalues --    0.02763   0.03164   0.03961   0.04414   0.04748
 Alpha virt. eigenvalues --    0.05278   0.06227   0.06545   0.06687   0.07499
 Alpha virt. eigenvalues --    0.08338   0.09171   0.10071   0.10560   0.11142

 Mulliken charges:
               1
     1  O   -1.196259
     2  S    2.828861
     3  N   -0.966106
     4  C    0.472694
     5  N   -0.585692
     6  N   -0.460843
     7  C    1.161349
     8  N   -0.633283
     9  C    0.920971
    10  C    0.212397
    11  C    0.643345
    12  C    0.559470
    13  C    0.574655
    14  C    0.417526
    15  C    0.075463
    16  O   -1.162010
    17  H    0.008112
    18  H   -0.473663
    19  H   -0.635758
    20  H   -0.437528
    21  H   -0.444163
    22  H   -0.428451
    23  H   -0.523131
    24  H    0.033838
    25  H   -0.015109
    26  H    0.053314
 Sum of Mulliken charges =  -0.00000

 Dipole moment (field-independent basis, Debye):
    X=             -0.5707    Y=              1.7982    Z=             -5.1156  Tot=              5.4524
 Quadrupole moment (field-independent basis, Debye-Ang):
   XX=            -70.5232   YY=           -103.3529   ZZ=           -108.5576
   XY=             -2.9810   XZ=            -16.4453   YZ=              2.0504

 Normal termination of Gaussian 16 at Wed Sep 23 06:00:34 2020.
