 Gaussian 16, Revision B.01,

 ----------------------------------------------------------------------
 #p b3lyp/6-31G(d) opt freq NoSymm scf=(MaxCycle=2000,NoVarAcc,NoIncFoc
 k) scrf=(iefpcm,read,solvent=water)
 ----------------------------------------------------------------------

 -------------------
 SM44_m1.a.8.pdb.xyz
 -------------------
 Symbolic Z-matrix:
 Charge = -1 Multiplicity = 1

 SCF Done:  E(RB3LYP) =  -1116.06469297     A.U. after   13 cycles
 SCF Done:  E(RB3LYP) =  -1116.06460113     A.U. after   10 cycles
 SCF Done:  E(RB3LYP) =  -1116.06446339     A.U. after   10 cycles
 SCF Done:  E(RB3LYP) =  -1116.06468998     A.U. after   11 cycles
 SCF Done:  E(RB3LYP) =  -1116.06469432     A.U. after    9 cycles
 SCF Done:  E(RB3LYP) =  -1116.06454983     A.U. after   11 cycles
 SCF Done:  E(RB3LYP) =  -1116.06431777     A.U. after   13 cycles
 SCF Done:  E(RB3LYP) =  -1116.06468043     A.U. after   11 cycles
 SCF Done:  E(RB3LYP) =  -1116.06469404     A.U. after    9 cycles
 SCF Done:  E(RB3LYP) =  -1116.06469432     A.U. after    7 cycles
 SCF Done:  E(RB3LYP) =  -1116.06440214     A.U. after    9 cycles
 SCF Done:  E(RB3LYP) =  -1116.06467315     A.U. after   11 cycles
 SCF Done:  E(RB3LYP) =  -1116.06440181     A.U. after   11 cycles
 SCF Done:  E(RB3LYP) =  -1116.06440304     A.U. after    7 cycles
 SCF Done:  E(RB3LYP) =  -1116.06467315     A.U. after   11 cycles
 SCF Done:  E(RB3LYP) =  -1116.06440012     A.U. after   11 cycles
 Optimization completed.
    -- Stationary point found.
 Normal termination of Gaussian 16 at Thu Sep 24 15:39:07 2020.

 --------------------------------------------------------------------
 #P Geom=AllCheck Guess=TCheck SCRF=Check GenChk RB3LYP/6-31G(d) Freq
 --------------------------------------------------------------------

 Structure from the checkpoint file:  "SM44_m1.a.8.pdb.xyz.mst.a.w.chk"
 -------------------
 SM44_m1.a.8.pdb.xyz
 -------------------
 Charge = -1 Multiplicity = 1

 SCF Done:  E(RB3LYP) =  -1116.06440012     A.U. after    1 cycles

  Exact polarizability: 309.064  -0.403 142.294   5.044  50.741 147.678
 Approx polarizability: 320.567   1.428 186.234   4.367  66.684 177.947

                      1                      2                      3
                      A                      A                      A
 Frequencies --     29.0594                31.2657                76.2486
 Red. masses --      4.3724                 6.7218                 5.7154
 Frc consts  --      0.0022                 0.0039                 0.0196
 IR Inten    --      3.4864                 4.6837                 2.3137

                      4                      5                      6
                      A                      A                      A
 Frequencies --     86.9752                99.5460               143.5090
 Red. masses --      5.4786                 7.4193                 5.1847
 Frc consts  --      0.0244                 0.0433                 0.0629
 IR Inten    --     13.7201                 2.9630                 0.6477

                      7                      8                      9
                      A                      A                      A
 Frequencies --    232.2052               239.2973               260.3787
 Red. masses --      5.7173                 1.1118                 5.5098
 Frc consts  --      0.1816                 0.0375                 0.2201
 IR Inten    --      7.2248                 0.8220                 4.6740

                     10                     11                     12
                      A                      A                      A
 Frequencies --    283.3168               317.6737               362.4367
 Red. masses --      4.2778                 4.5562                 6.4190
 Frc consts  --      0.2023                 0.2709                 0.4968
 IR Inten    --      2.0770                 8.2394                11.6067

                     13                     14                     15
                      A                      A                      A
 Frequencies --    382.8384               416.6675               426.2742
 Red. masses --      6.8916                 3.2184                 7.5598
 Frc consts  --      0.5951                 0.3292                 0.8094
 IR Inten    --      7.4919                 1.2650                 6.6595

                     16                     17                     18
                      A                      A                      A
 Frequencies --    476.8670               487.5347               522.2875
 Red. masses --      7.5200                 7.9688                 3.8929
 Frc consts  --      1.0075                 1.1160                 0.6257
 IR Inten    --     41.0208                98.5619                19.0100

                     19                     20                     21
                      A                      A                      A
 Frequencies --    554.4187               628.6155               666.9564
 Red. masses --      5.1662                 6.4217                 3.8488
 Frc consts  --      0.9356                 1.4951                 1.0087
 IR Inten    --     42.9401                 0.0092                 0.5413

                     22                     23                     24
                      A                      A                      A
 Frequencies --    686.4184               697.1398               704.5090
 Red. masses --      6.3774                 2.1695                 2.3518
 Frc consts  --      1.7704                 0.6212                 0.6877
 IR Inten    --     28.0016                 8.4287                21.3161

                     25                     26                     27
                      A                      A                      A
 Frequencies --    709.1319               738.3337               766.2587
 Red. masses --      6.0598                 3.0656                 8.9208
 Frc consts  --      1.7954                 0.9846                 3.0861
 IR Inten    --     23.5397               106.5449               171.0942

                     28                     29                     30
                      A                      A                      A
 Frequencies --    778.2336               853.4216               924.1912
 Red. masses --      1.6484                 1.2522                 6.8249
 Frc consts  --      0.5882                 0.5373                 3.4345
 IR Inten    --     61.1198                 0.2533               131.3781

                     31                     32                     33
                      A                      A                      A
 Frequencies --    929.8241               980.7933               988.7947
 Red. masses --      1.4038                 1.3414                 1.5221
 Frc consts  --      0.7151                 0.7602                 0.8768
 IR Inten    --      7.1172                 0.0837                82.5123

                     34                     35                     36
                      A                      A                      A
 Frequencies --    997.5590               999.6440              1007.4144
 Red. masses --      3.0619                 1.9520                 1.2585
 Frc consts  --      1.7953                 1.1493                 0.7525
 IR Inten    --     56.2802                 9.4310                 0.3407

                     37                     38                     39
                      A                      A                      A
 Frequencies --   1018.3519              1050.8016              1059.9070
 Red. masses --      6.0511                 2.9112                 3.0512
 Frc consts  --      3.6973                 1.8939                 2.0195
 IR Inten    --      1.6989                 7.4261                46.7870

                     40                     41                     42
                      A                      A                      A
 Frequencies --   1071.7539              1093.2011              1111.8527
 Red. masses --      2.9315                 4.7117                 1.7329
 Frc consts  --      1.9839                 3.3176                 1.2621
 IR Inten    --    248.9851               620.5482                65.0215

                     43                     44                     45
                      A                      A                      A
 Frequencies --   1187.5123              1202.9052              1206.5006
 Red. masses --      1.1005                 1.3441                 6.3885
 Frc consts  --      0.9143                 1.1459                 5.4790
 IR Inten    --      0.2227                52.0275               404.7045

                     46                     47                     48
                      A                      A                      A
 Frequencies --   1237.1433              1246.7629              1283.2067
 Red. masses --      4.6212                 4.9818                 2.7478
 Frc consts  --      4.1672                 4.5625                 2.6658
 IR Inten    --     70.8009                17.2586               236.4581

                     49                     50                     51
                      A                      A                      A
 Frequencies --   1336.5829              1366.9040              1368.5892
 Red. masses --      3.5257                 2.4554                 1.4069
 Frc consts  --      3.7110                 2.7030                 1.5526
 IR Inten    --    176.9012                30.3315                33.5993

                     52                     53                     54
                      A                      A                      A
 Frequencies --   1380.9033              1452.7559              1479.0853
 Red. masses --      2.5885                 4.4493                 1.0531
 Frc consts  --      2.9082                 5.5326                 1.3573
 IR Inten    --    316.5989               192.2982                 2.3343

                     55                     56                     57
                      A                      A                      A
 Frequencies --   1493.7478              1512.2945              1547.3910
 Red. masses --      1.0526                 2.5063                 2.6724
 Frc consts  --      1.3838                 3.3772                 3.7700
 IR Inten    --      4.7025                23.9808               378.3362

                     58                     59                     60
                      A                      A                      A
 Frequencies --   1584.0953              1652.5520              1659.4367
 Red. masses --      6.4606                 6.3643                 5.6635
 Frc consts  --      9.5519                10.2402                 9.1888
 IR Inten    --    405.5737                 7.7590                43.4197

                     61                     62                     63
                      A                      A                      A
 Frequencies --   3095.6541              3192.1802              3206.2808
 Red. masses --      1.0302                 1.1068                 1.1069
 Frc consts  --      5.8166                 6.6449                 6.7042
 IR Inten    --     10.0142                 9.0063                 1.6332

                     64                     65                     66
                      A                      A                      A
 Frequencies --   3210.6012              3219.8784              3229.9704
 Red. masses --      1.0861                 1.0901                 1.0946
 Frc consts  --      6.5964                 6.6588                 6.7285
 IR Inten    --      0.0900                22.7900                48.6606

                     67                     68                     69
                      A                      A                      A
 Frequencies --   3241.3381              3257.8476              3338.6008
 Red. masses --      1.0943                 1.0927                 1.0981
 Frc consts  --      6.7738                 6.8333                 7.2114
 IR Inten    --     10.5429                 2.3284                 6.0247

 - Thermochemistry -
 -------------------
 Temperature   298.150 Kelvin.  Pressure   1.00000 Atm.
 Atom     1 has atomic number  8 and mass  15.99491

 Molecular mass:   237.04462 amu.
 Principal axes and moments of inertia in atomic units:
                           1         2         3
     Eigenvalues --   923.604909477.159639983.48330
           X            0.99944   0.03261   0.00807
           Y           -0.02807   0.67875   0.73384
           Z           -0.01845   0.73365  -0.67928
 This molecule is an asymmetric top.
 Rotational symmetry number  1.
 Warning -- assumption of classical behavior for rotation
           may cause significant error
 Rotational temperatures (Kelvin)      0.09378     0.00914     0.00868
 Rotational constants (GHZ):           1.95402     0.19043     0.18077
 Zero-point vibrational energy     479000.5 (Joules/Mol)
                                  114.48386 (Kcal/Mol)
 Warning -- explicit consideration of  19 degrees of freedom as
           vibrations may cause significant error
 Vibrational temperatures:     41.81    44.98   109.70   125.14   143.22
          (Kelvin)            206.48   334.09   344.30   374.63   407.63
                              457.06   521.47   550.82   599.49   613.31
                              686.11   701.45   751.46   797.68   904.44
                              959.60   987.60  1003.03  1013.63  1020.28
                             1062.30  1102.48  1119.70  1227.88  1329.71
                             1337.81  1411.14  1422.66  1435.26  1438.26
                             1449.44  1465.18  1511.87  1524.97  1542.01
                             1572.87  1599.71  1708.57  1730.71  1735.89
                             1779.97  1793.81  1846.25  1923.04  1966.67
                             1969.09  1986.81  2090.19  2128.07  2149.17
                             2175.85  2226.35  2279.16  2377.65  2387.56
                             4453.96  4592.84  4613.12  4619.34  4632.69
                             4647.21  4663.56  4687.32  4803.50

 Zero-point correction=                           0.182442 (Hartree/Particle)
 Thermal correction to Energy=                    0.196083
 Thermal correction to Enthalpy=                  0.197027
 Thermal correction to Gibbs Free Energy=         0.140133
 Sum of electronic and zero-point Energies=          -1115.881958
 Sum of electronic and thermal Energies=             -1115.868317
 Sum of electronic and thermal Enthalpies=           -1115.867373
 Sum of electronic and thermal Free Energies=        -1115.924267

                     E (Thermal)             CV                S
                      KCal/Mol        Cal/Mol-Kelvin    Cal/Mol-Kelvin
 Total                  123.044             51.931            119.745
 Electronic               0.000              0.000              0.000
 Translational            0.889              2.981             42.291
 Rotational               0.889              2.981             32.835
 Vibrational            121.267             45.969             44.619
 Vibration     1          0.593              1.984              5.893
 Vibration     2          0.594              1.983              5.747
 Vibration     3          0.599              1.965              3.985
 Vibration     4          0.601              1.958              3.727
 Vibration     5          0.604              1.949              3.463
 Vibration     6          0.616              1.910              2.757
 Vibration     7          0.653              1.792              1.862
 Vibration     8          0.657              1.780              1.808
 Vibration     9          0.668              1.745              1.659
 Vibration    10          0.682              1.705              1.514
 Vibration    11          0.704              1.640              1.322
 Vibration    12          0.736              1.550              1.112
 Vibration    13          0.752              1.507              1.028
 Vibration    14          0.780              1.434              0.903
 Vibration    15          0.788              1.413              0.871
 Vibration    16          0.833              1.301              0.719
 Vibration    17          0.843              1.278              0.690
 Vibration    18          0.877              1.201              0.605
 Vibration    19          0.910              1.130              0.535

 Optimization completed.
    -- Stationary point found.
 Normal termination of Gaussian 16 at Thu Sep 24 15:43:53 2020.

 ----------------------------------------------------------------------
 #p b3lyp/6-31G(d) scrf=(iefpcm,read,solvent=water) geom=allcheck guess
 =read
 ----------------------------------------------------------------------

 Structure from the checkpoint file:  "SM44_m1.a.8.pdb.xyz.mst.a.w.chk"
 -------------------
 SM44_m1.a.8.pdb.xyz
 -------------------
 Charge = -1 Multiplicity = 1

 SCF Done:  E(RB3LYP) =  -1116.06436194     A.U. after    7 cycles
 Normal termination of Gaussian 16 at Thu Sep 24 15:44:16 2020.

 -----------------------------
 #p B3LYP/6-31G* geom=allcheck
 -----------------------------

 Structure from the checkpoint file:  "SM44_m1.a.8.pdb.xyz.mst.a.w.chk"
 -------------------
 SM44_m1.a.8.pdb.xyz
 -------------------
 Charge = -1 Multiplicity = 1

 SCF Done:  E(RB3LYP) =  -1115.95988067     A.U. after   15 cycles
 Normal termination of Gaussian 16 at Thu Sep 24 15:44:40 2020.
 Gaussian 16:  ES64L-G16RevB.01 20-Dec-2017

 ----------------------------------------------------------------------
 #p mp2/aug-cc-pVDZ scf=(MaxCycle=2000,NoVarAcc,NoIncFock) maxdisk=120G
 B geom=allcheck
 ----------------------------------------------------------------------

 Structure from the checkpoint file:  "SM44_m1.a.8.pdb.xyz.mst.a.w.chk"
 -------------------
 SM44_m1.a.8.pdb.xyz
 -------------------
 Charge = -1 Multiplicity = 1

                         Standard orientation:
 ---------------------------------------------------------------------
 Center     Atomic      Atomic             Coordinates (Angstroms)
 Number     Number       Type             X           Y           Z
 ---------------------------------------------------------------------
      1          8           0       -4.635677   -1.099407   -0.290881
      2         16           0       -3.516867   -0.195239    0.084343
      3          7           0       -2.165414   -0.933566   -0.362455
      4          6           0       -0.951655   -0.321517   -0.136675
      5          7           0       -0.732828    0.985418    0.241036
      6          7           0        0.560485    1.214389    0.319101
      7          6           0        0.296486   -0.912670   -0.297257
      8          7           0        1.194507    0.073093   -0.011439
      9          6           0        2.614272    0.003215   -0.009669
     10          6           0        3.365228    1.179857   -0.094776
     11          6           0        4.756197    1.103036   -0.086607
     12          6           0        5.398573   -0.135136   -0.007873
     13          6           0        4.638430   -1.303490    0.070525
     14          6           0        3.245702   -1.240251    0.076131
     15          6           0       -3.717657    1.296307   -0.914260
     16          8           0       -3.536889    0.267511    1.502795
     17          1           0        0.591316   -1.900875   -0.601721
     18          1           0        2.856801    2.132014   -0.167805
     19          1           0        5.338257    2.015643   -0.151450
     20          1           0        6.481730   -0.188223   -0.008032
     21          1           0        5.126201   -2.269878    0.136461
     22          1           0        2.655749   -2.144963    0.157817
     23          1           0       -3.759177    1.011643   -1.966087
     24          1           0       -2.863985    1.946823   -0.726800
     25          1           0       -4.647180    1.785374   -0.618113
 ---------------------------------------------------------------------

 SCF Done:  E(RHF) =  -1111.08696190     A.U. after   17 cycles
 E2 =    -0.2492999771D+01 EUMP2 =    -0.11135799616733D+04

 The electronic state is 1-A.
 Alpha  occ. eigenvalues --  -92.03245 -20.36599 -20.36524 -15.55529 -15.52783
 Alpha  occ. eigenvalues --  -15.47225 -15.37765 -11.21865 -11.17878 -11.17720
 Alpha  occ. eigenvalues --  -11.17149 -11.17121 -11.16971 -11.16733 -11.14295
 Alpha  occ. eigenvalues --  -11.11702  -8.99980  -6.68526  -6.68462  -6.68404
 Alpha  occ. eigenvalues --   -1.31819  -1.25765  -1.13420  -1.12701  -1.06824
 Alpha  occ. eigenvalues --   -1.03872  -0.95485  -0.94368  -0.92037  -0.85981
 Alpha  occ. eigenvalues --   -0.78886  -0.76892  -0.71120  -0.69893  -0.66099
 Alpha  occ. eigenvalues --   -0.62021  -0.58804  -0.56045  -0.55301  -0.53436
 Alpha  occ. eigenvalues --   -0.52110  -0.51707  -0.50483  -0.48629  -0.47063
 Alpha  occ. eigenvalues --   -0.44866  -0.44196  -0.43690  -0.43148  -0.42600
 Alpha  occ. eigenvalues --   -0.39696  -0.35101  -0.32984  -0.32414  -0.30767
 Alpha  occ. eigenvalues --   -0.28802  -0.28691  -0.27173  -0.26951  -0.24367
 Alpha  occ. eigenvalues --   -0.23737  -0.15058
 Alpha virt. eigenvalues --    0.08723   0.09712   0.10785   0.12818   0.12980
 Alpha virt. eigenvalues --    0.13816   0.14430   0.15391   0.16738   0.17077
 Alpha virt. eigenvalues --    0.17464   0.17764   0.18728   0.19397   0.19916

 Mulliken charges:
               1
     1  O   -1.231973
     2  S    2.757939
     3  N   -1.329647
     4  C    0.107011
     5  N   -0.708387
     6  N   -0.255457
     7  C    1.393532
     8  N   -0.626146
     9  C    0.919686
    10  C    0.455557
    11  C    0.593075
    12  C    0.596665
    13  C    0.731706
    14  C    0.046580
    15  C    0.046526
    16  O   -1.278374
    17  H   -0.543019
    18  H   -0.535382
    19  H   -0.451205
    20  H   -0.462229
    21  H   -0.455798
    22  H   -0.652827
    23  H   -0.012881
    24  H   -0.036611
    25  H   -0.068342
 Sum of Mulliken charges =  -1.00000

 Dipole moment (field-independent basis, Debye):
    X=             14.4604    Y=              1.6289    Z=             -3.0887  Tot=             14.8761
 Quadrupole moment (field-independent basis, Debye-Ang):
   XX=           -161.6904   YY=           -106.6502   ZZ=           -114.8641
   XY=            -17.0523   XZ=              8.8424   YZ=             -5.3105

 Normal termination of Gaussian 16 at Thu Sep 24 15:57:15 2020.
