 Gaussian 16, Revision B.01,

 ----------------------------------------------------------------------
 #p b3lyp/6-31G(d) opt freq NoSymm scf=(MaxCycle=2000,NoVarAcc,NoIncFoc
 k) scrf=(iefpcm,read,solvent=water)
 ----------------------------------------------------------------------

 -------------------
 SM44_m2.b.4.pdb.xyz
 -------------------
 Symbolic Z-matrix:
 Charge =  1 Multiplicity = 1

 SCF Done:  E(RB3LYP) =  -1116.98529777     A.U. after   13 cycles
 SCF Done:  E(RB3LYP) =  -1116.98526184     A.U. after    9 cycles
 SCF Done:  E(RB3LYP) =  -1116.98523437     A.U. after    9 cycles
 SCF Done:  E(RB3LYP) =  -1116.98529843     A.U. after   10 cycles
 SCF Done:  E(RB3LYP) =  -1116.98522049     A.U. after   10 cycles
 SCF Done:  E(RB3LYP) =  -1116.98516829     A.U. after    9 cycles
 SCF Done:  E(RB3LYP) =  -1116.98529801     A.U. after   10 cycles
 SCF Done:  E(RB3LYP) =  -1116.98530008     A.U. after    8 cycles
 SCF Done:  E(RB3LYP) =  -1116.98513096     A.U. after   10 cycles
 SCF Done:  E(RB3LYP) =  -1116.98514418     A.U. after    9 cycles
 SCF Done:  E(RB3LYP) =  -1116.98513694     A.U. after    8 cycles
 SCF Done:  E(RB3LYP) =  -1116.98529998     A.U. after   10 cycles
 SCF Done:  E(RB3LYP) =  -1116.98513714     A.U. after   10 cycles
 SCF Done:  E(RB3LYP) =  -1116.98513844     A.U. after    7 cycles
 SCF Done:  E(RB3LYP) =  -1116.98529996     A.U. after   10 cycles
 SCF Done:  E(RB3LYP) =  -1116.98513794     A.U. after   10 cycles
 Optimization completed.
    -- Stationary point found.
 Normal termination of Gaussian 16 at Thu Sep 24 14:53:40 2020.

 --------------------------------------------------------------------
 #P Geom=AllCheck Guess=TCheck SCRF=Check GenChk RB3LYP/6-31G(d) Freq
 --------------------------------------------------------------------

 Structure from the checkpoint file:  "SM44_m2.b.4.pdb.xyz.mst.b.w.chk"
 -------------------
 SM44_m2.b.4.pdb.xyz
 -------------------
 Charge =  1 Multiplicity = 1

 SCF Done:  E(RB3LYP) =  -1116.98513794     A.U. after    1 cycles

  Exact polarizability: 273.576   7.163 179.821 -19.594  26.133 111.498
 Approx polarizability: 288.961   5.521 229.614 -27.766  36.884 132.575

                      1                      2                      3
                      A                      A                      A
 Frequencies --     39.6735                41.4691                50.7820
 Red. masses --      4.5637                 5.4089                 5.7834
 Frc consts  --      0.0042                 0.0055                 0.0088
 IR Inten    --      2.3121                 8.2940                12.9421

                      4                      5                      6
                      A                      A                      A
 Frequencies --     74.6566               105.0165               124.1010
 Red. masses --      5.4219                 4.9474                 6.0863
 Frc consts  --      0.0178                 0.0321                 0.0552
 IR Inten    --      7.0259                 5.1874                 3.0379

                      7                      8                      9
                      A                      A                      A
 Frequencies --    233.6324               240.2523               256.7633
 Red. masses --      4.4728                 1.1706                 4.0637
 Frc consts  --      0.1438                 0.0398                 0.1578
 IR Inten    --      3.1844                 0.6400                 1.7190

                     10                     11                     12
                      A                      A                      A
 Frequencies --    275.2184               296.5849               341.2438
 Red. masses --      6.7234                 3.6998                 4.2767
 Frc consts  --      0.3001                 0.1917                 0.2934
 IR Inten    --      0.8299                11.2579                 0.2151

                     13                     14                     15
                      A                      A                      A
 Frequencies --    393.6878               403.1747               417.6256
 Red. masses --      6.1955                 4.7538                 2.9799
 Frc consts  --      0.5658                 0.4553                 0.3062
 IR Inten    --      2.6409                14.8230                 0.0851

                     16                     17                     18
                      A                      A                      A
 Frequencies --    453.0875               480.2427               502.4632
 Red. masses --      5.1100                 5.6647                 3.2416
 Frc consts  --      0.6181                 0.7697                 0.4822
 IR Inten    --     15.1390                47.8304                52.9520

                     19                     20                     21
                      A                      A                      A
 Frequencies --    533.0985               553.9634               626.6890
 Red. masses --      2.8408                 4.3254                 6.4228
 Frc consts  --      0.4757                 0.7820                 1.4862
 IR Inten    --    135.0167               120.8759                 0.6026

                     22                     23                     24
                      A                      A                      A
 Frequencies --    665.2317               682.1638               698.2585
 Red. masses --      2.2497                 2.7199                 2.2076
 Frc consts  --      0.5866                 0.7457                 0.6342
 IR Inten    --     24.6010                54.3021                68.4441

                     25                     26                     27
                      A                      A                      A
 Frequencies --    701.6144               709.4829               743.3824
 Red. masses --      3.9497                 2.4508                 6.6519
 Frc consts  --      1.1455                 0.7269                 2.1658
 IR Inten    --     34.6144                55.6977               139.9983

                     28                     29                     30
                      A                      A                      A
 Frequencies --    780.5731               784.5229               823.9848
 Red. masses --      1.6450                 2.1417                 2.0755
 Frc consts  --      0.5905                 0.7766                 0.8303
 IR Inten    --     78.0835                51.2880                11.5478

                     31                     32                     33
                      A                      A                      A
 Frequencies --    837.6998               849.7920               942.5894
 Red. masses --      3.5838                 1.2711                 1.3708
 Frc consts  --      1.4817                 0.5408                 0.7176
 IR Inten    --    132.9618                 0.2011                 6.0343

                     34                     35                     36
                      A                      A                      A
 Frequencies --    986.3221              1007.2971              1018.9748
 Red. masses --      1.3489                 7.7805                 1.3666
 Frc consts  --      0.7732                 4.6513                 0.8360
 IR Inten    --      0.5364                28.3839                73.4610

                     37                     38                     39
                      A                      A                      A
 Frequencies --   1019.3517              1022.6106              1023.1814
 Red. masses --      1.2874                 6.0647                 1.3448
 Frc consts  --      0.7881                 3.7367                 0.8295
 IR Inten    --      1.3861                 1.7411                22.0144

                     40                     41                     42
                      A                      A                      A
 Frequencies --   1054.0927              1079.4211              1111.2024
 Red. masses --      2.1707                 2.7454                 2.7189
 Frc consts  --      1.4210                 1.8847                 1.9780
 IR Inten    --      5.6412                80.5072                15.0756

                     43                     44                     45
                      A                      A                      A
 Frequencies --   1114.5825              1128.4053              1193.9103
 Red. masses --      1.5944                11.7644                 1.0920
 Frc consts  --      1.1670                 8.8257                 0.9171
 IR Inten    --     31.8970               364.8455                 0.1077

                     46                     47                     48
                      A                      A                      A
 Frequencies --   1205.6328              1222.3732              1248.7387
 Red. masses --      1.1525                 1.9699                 2.5751
 Frc consts  --      0.9870                 1.7342                 2.3658
 IR Inten    --      2.5987                65.3865                 2.7283

                     49                     50                     51
                      A                      A                      A
 Frequencies --   1314.3122              1343.7753              1356.4752
 Red. masses --      7.3813                 2.4387                 3.4481
 Frc consts  --      7.5124                 2.5945                 3.7381
 IR Inten    --    254.8459                16.9020               107.5119

                     52                     53                     54
                      A                      A                      A
 Frequencies --   1368.2919              1397.9145              1402.1296
 Red. masses --      3.0738                 1.3513                 1.7442
 Frc consts  --      3.3907                 1.5558                 2.0204
 IR Inten    --      2.6480                 9.7430                80.4491

                     55                     56                     57
                      A                      A                      A
 Frequencies --   1414.7861              1468.1543              1475.4233
 Red. masses --      2.8528                 3.0647                 1.0495
 Frc consts  --      3.3643                 3.8921                 1.3461
 IR Inten    --     64.9123                12.9342                 8.5449

                     58                     59                     60
                      A                      A                      A
 Frequencies --   1484.1010              1502.0391              1519.0081
 Red. masses --      1.0830                 2.0147                 2.6125
 Frc consts  --      1.4054                 2.6781                 3.5516
 IR Inten    --      6.8234                14.7888                20.0853

                     61                     62                     63
                      A                      A                      A
 Frequencies --   1542.4539              1647.4962              1653.7728
 Red. masses --      2.4266                 5.4366                 5.6443
 Frc consts  --      3.4016                 8.6942                 9.0952
 IR Inten    --     37.8893               264.7810                21.8813

                     64                     65                     66
                      A                      A                      A
 Frequencies --   1664.1678              3108.3947              3210.6994
 Red. masses --      5.8432                 1.0290                 1.1071
 Frc consts  --      9.5345                 5.8579                 6.7243
 IR Inten    --    166.9406                 0.4368                 1.6054

                     67                     68                     69
                      A                      A                      A
 Frequencies --   3219.5305              3223.4865              3233.0828
 Red. masses --      1.0875                 1.1094                 1.0897
 Frc consts  --      6.6414                 6.7917                 6.7110
 IR Inten    --      1.8546                 0.1891                12.0688

                     70                     71                     72
                      A                      A                      A
 Frequencies --   3238.4749              3248.5207              3257.9896
 Red. masses --      1.0934                 1.0957                 1.0941
 Frc consts  --      6.7565                 6.8125                 6.8426
 IR Inten    --     27.7892                 7.5023                 1.2613

                     73                     74                     75
                      A                      A                      A
 Frequencies --   3354.8357              3534.7204              3540.8360
 Red. masses --      1.1019                 1.0864                 1.0778
 Frc consts  --      7.3066                 7.9972                 7.9620
 IR Inten    --     27.1298               640.8726               154.1426

 - Thermochemistry -
 -------------------
 Temperature   298.150 Kelvin.  Pressure   1.00000 Atm.
 Atom     1 has atomic number  8 and mass  15.99491

 Molecular mass:   239.06027 amu.
 Principal axes and moments of inertia in atomic units:
                           1         2         3
     Eigenvalues --  1089.364539316.255009642.06629
           X            0.99999  -0.00468   0.00043
           Y            0.00470   0.99046  -0.13770
           Z            0.00022   0.13770   0.99047
 This molecule is an asymmetric top.
 Rotational symmetry number  1.
 Warning -- assumption of classical behavior for rotation
           may cause significant error
 Rotational temperatures (Kelvin)      0.07951     0.00930     0.00898
 Rotational constants (GHZ):           1.65669     0.19372     0.18717
 Zero-point vibrational energy     549227.6 (Joules/Mol)
                                  131.26856 (Kcal/Mol)
 Warning -- explicit consideration of  20 degrees of freedom as
           vibrations may cause significant error
 Vibrational temperatures:     57.08    59.66    73.06   107.41   151.10
          (Kelvin)            178.55   336.14   345.67   369.43   395.98
                              426.72   490.97   566.43   580.08   600.87
                              651.89   690.96   722.93   767.01   797.03
                              901.67   957.12   981.48  1004.64  1009.47
                             1020.79  1069.56  1123.07  1128.75  1185.53
                             1205.26  1222.66  1356.18  1419.10  1449.28
                             1466.08  1466.62  1471.31  1472.13  1516.60
                             1553.05  1598.77  1603.64  1623.52  1717.77
                             1734.64  1758.72  1796.66  1891.00  1933.39
                             1951.67  1968.67  2011.29  2017.35  2035.56
                             2112.35  2122.81  2135.29  2161.10  2185.51
                             2219.25  2370.38  2379.41  2394.37  4472.29
                             4619.48  4632.19  4637.88  4651.68  4659.44
                             4673.90  4687.52  4826.86  5085.67  5094.47

 Zero-point correction=                           0.209190 (Hartree/Particle)
 Thermal correction to Energy=                    0.223262
 Thermal correction to Enthalpy=                  0.224207
 Thermal correction to Gibbs Free Energy=         0.166638
 Sum of electronic and zero-point Energies=          -1116.775948
 Sum of electronic and thermal Energies=             -1116.761876
 Sum of electronic and thermal Enthalpies=           -1116.760931
 Sum of electronic and thermal Free Energies=        -1116.818500

                     E (Thermal)             CV                S
                      KCal/Mol        Cal/Mol-Kelvin    Cal/Mol-Kelvin
 Total                  140.099             53.942            121.164
 Electronic               0.000              0.000              0.000
 Translational            0.889              2.981             42.316
 Rotational               0.889              2.981             32.948
 Vibrational            138.322             47.981             45.901
 Vibration     1          0.594              1.981              5.275
 Vibration     2          0.594              1.981              5.188
 Vibration     3          0.595              1.977              4.787
 Vibration     4          0.599              1.966              4.027
 Vibration     5          0.605              1.945              3.359
 Vibration     6          0.610              1.929              3.035
 Vibration     7          0.654              1.789              1.851
 Vibration     8          0.657              1.779              1.801
 Vibration     9          0.666              1.751              1.684
 Vibration    10          0.677              1.719              1.563
 Vibration    11          0.690              1.680              1.436
 Vibration    12          0.721              1.593              1.206
 Vibration    13          0.761              1.484              0.986
 Vibration    14          0.769              1.463              0.951
 Vibration    15          0.781              1.432              0.900
 Vibration    16          0.812              1.354              0.786
 Vibration    17          0.837              1.294              0.709
 Vibration    18          0.858              1.245              0.652
 Vibration    19          0.888              1.177              0.580
 Vibration    20          0.909              1.131              0.536

 Optimization completed.
    -- Stationary point found.
 Normal termination of Gaussian 16 at Thu Sep 24 14:59:47 2020.

 ----------------------------------------------------------------------
 #p b3lyp/6-31G(d) scrf=(iefpcm,read,solvent=water) geom=allcheck guess
 =read
 ----------------------------------------------------------------------

 Structure from the checkpoint file:  "SM44_m2.b.4.pdb.xyz.mst.b.w.chk"
 -------------------
 SM44_m2.b.4.pdb.xyz
 -------------------
 Charge =  1 Multiplicity = 1

 SCF Done:  E(RB3LYP) =  -1116.98513903     A.U. after    7 cycles
 Normal termination of Gaussian 16 at Thu Sep 24 15:00:15 2020.

 -----------------------------
 #p B3LYP/6-31G* geom=allcheck
 -----------------------------

 Structure from the checkpoint file:  "SM44_m2.b.4.pdb.xyz.mst.b.w.chk"
 -------------------
 SM44_m2.b.4.pdb.xyz
 -------------------
 Charge =  1 Multiplicity = 1

 SCF Done:  E(RB3LYP) =  -1116.87943808     A.U. after   16 cycles
 Normal termination of Gaussian 16 at Thu Sep 24 15:00:47 2020.
 Gaussian 16:  ES64L-G16RevB.01 20-Dec-2017

 ----------------------------------------------------------------------
 #p mp2/aug-cc-pVDZ scf=(MaxCycle=2000,NoVarAcc,NoIncFock) maxdisk=120G
 B geom=allcheck
 ----------------------------------------------------------------------

 Structure from the checkpoint file:  "SM44_m2.b.4.pdb.xyz.mst.b.w.chk"
 -------------------
 SM44_m2.b.4.pdb.xyz
 -------------------
 Charge =  1 Multiplicity = 1

                         Standard orientation:
 ---------------------------------------------------------------------
 Center     Atomic      Atomic             Coordinates (Angstroms)
 Number     Number       Type             X           Y           Z
 ---------------------------------------------------------------------
      1          8           0        4.729966   -0.488796   -0.504279
      2         16           0        3.514950   -0.043909    0.175872
      3          7           0        2.230431   -0.578857   -0.829918
      4          6           0        0.941500   -0.117317   -0.635302
      5          7           0        0.578291    1.186067   -0.780033
      6          7           0       -0.707669    1.389805   -0.595654
      7          6           0       -0.234588   -0.775702   -0.341306
      8          7           0       -1.194567    0.187948   -0.342702
      9          6           0       -2.595745    0.023087   -0.083433
     10          6           0       -3.205070   -1.184727   -0.421445
     11          6           0       -4.563698   -1.343384   -0.154499
     12          6           0       -5.292502   -0.305606    0.429620
     13          6           0       -4.662820    0.898653    0.753942
     14          6           0       -3.303400    1.071338    0.504351
     15          6           0        3.342268   -0.937789    1.721177
     16          8           0        3.260513    1.380734    0.404173
     17          1           0        2.289736   -1.577322   -1.034753
     18          1           0       -0.432563   -1.811112   -0.127713
     19          1           0       -2.638819   -1.976255   -0.896325
     20          1           0       -5.050648   -2.276335   -0.412968
     21          1           0       -6.349604   -0.434925    0.632674
     22          1           0       -5.225517    1.703581    1.212312
     23          1           0       -2.795478    1.990571    0.765662
     24          1           0        3.428047   -2.003453    1.512412
     25          1           0        2.376966   -0.694777    2.164072
     26          1           0        4.156299   -0.604979    2.366698
     27          1           0        1.177464    1.985985   -0.995663
 ---------------------------------------------------------------------

 SCF Done:  E(RHF) =  -1112.00294542     A.U. after   17 cycles
 E2 =    -0.2469881334D+01 EUMP2 =    -0.11144728267587D+04

 The electronic state is 1-A.
 Alpha  occ. eigenvalues --  -92.37196 -20.70470 -20.69537 -15.89754 -15.87933
 Alpha  occ. eigenvalues --  -15.87702 -15.79353 -11.53847 -11.48555 -11.44827
 Alpha  occ. eigenvalues --  -11.42349 -11.39892 -11.39364 -11.38274 -11.38118
 Alpha  occ. eigenvalues --  -11.37987  -9.33988  -7.02507  -7.02488  -7.02330
 Alpha  occ. eigenvalues --   -1.68606  -1.60285  -1.48133  -1.47388  -1.42454
 Alpha  occ. eigenvalues --   -1.30485  -1.29451  -1.19796  -1.18259  -1.16780
 Alpha  occ. eigenvalues --   -1.09574  -1.07659  -1.02179  -0.98144  -0.96606
 Alpha  occ. eigenvalues --   -0.94348  -0.89450  -0.88260  -0.87678  -0.86484
 Alpha  occ. eigenvalues --   -0.82851  -0.81906  -0.81239  -0.78730  -0.77285
 Alpha  occ. eigenvalues --   -0.75235  -0.74469  -0.73839  -0.73497  -0.71993
 Alpha  occ. eigenvalues --   -0.70117  -0.66636  -0.65675  -0.64569  -0.64089
 Alpha  occ. eigenvalues --   -0.63172  -0.62473  -0.60787  -0.60398  -0.53969
 Alpha  occ. eigenvalues --   -0.48083  -0.47750
 Alpha virt. eigenvalues --   -0.09711  -0.08156  -0.06052  -0.05759  -0.05078
 Alpha virt. eigenvalues --   -0.03965  -0.03818  -0.03396  -0.02891  -0.02416
 Alpha virt. eigenvalues --   -0.02018  -0.01882  -0.01424  -0.00569  -0.00465

 Mulliken charges:
               1
     1  O   -1.065166
     2  S    2.585259
     3  N   -0.781593
     4  C    0.439868
     5  N   -0.366474
     6  N   -0.290291
     7  C    1.453378
     8  N   -0.581672
     9  C    0.956021
    10  C    0.103801
    11  C    0.762712
    12  C    0.582002
    13  C    0.588927
    14  C    0.381111
    15  C    0.089664
    16  O   -1.127685
    17  H   -0.032424
    18  H   -0.468729
    19  H   -0.641530
    20  H   -0.412198
    21  H   -0.416794
    22  H   -0.405863
    23  H   -0.520981
    24  H    0.042085
    25  H    0.035702
    26  H    0.057000
    27  H    0.033870
 Sum of Mulliken charges =   1.00000

 Dipole moment (field-independent basis, Debye):
    X=             -4.9930    Y=             -3.6850    Z=              1.4831  Tot=              6.3803
 Quadrupole moment (field-independent basis, Debye-Ang):
   XX=            -68.4548   YY=            -82.9039   ZZ=            -93.3639
   XY=             -6.0455   XZ=              6.8057   YZ=             -1.1427

 Normal termination of Gaussian 16 at Thu Sep 24 15:17:18 2020.
