 Gaussian 16, Revision B.01,

 ----------------------------------------------------------------------
 #p b3lyp/6-31G(d) opt freq NoSymm scf=(MaxCycle=2000,NoVarAcc,NoIncFoc
 k) scrf=(iefpcm,read,solvent=water)
 ----------------------------------------------------------------------

 -------------------
 SM44_m0.n.1.pdb.xyz
 -------------------
 Symbolic Z-matrix:
 Charge =  0 Multiplicity = 1

 SCF Done:  E(RB3LYP) =  -1116.53832221     A.U. after   13 cycles
 SCF Done:  E(RB3LYP) =  -1116.53829442     A.U. after    9 cycles
 SCF Done:  E(RB3LYP) =  -1116.53825701     A.U. after    9 cycles
 SCF Done:  E(RB3LYP) =  -1116.53822220     A.U. after    9 cycles
 SCF Done:  E(RB3LYP) =  -1116.53822221     A.U. after    8 cycles
 SCF Done:  E(RB3LYP) =  -1116.53822256     A.U. after    8 cycles
 SCF Done:  E(RB3LYP) =  -1116.53822254     A.U. after    7 cycles
 SCF Done:  E(RB3LYP) =  -1116.53822256     A.U. after    7 cycles
 SCF Done:  E(RB3LYP) =  -1116.53827388     A.U. after    9 cycles
 SCF Done:  E(RB3LYP) =  -1116.53820646     A.U. after   10 cycles
 SCF Done:  E(RB3LYP) =  -1116.53820784     A.U. after    7 cycles
 SCF Done:  E(RB3LYP) =  -1116.53820850     A.U. after    6 cycles
 Optimization completed.
    -- Stationary point found.
 Normal termination of Gaussian 16 at Wed Sep 23 05:27:01 2020.

 --------------------------------------------------------------------
 #P Geom=AllCheck Guess=TCheck SCRF=Check GenChk RB3LYP/6-31G(d) Freq
 --------------------------------------------------------------------

 Structure from the checkpoint file:  "SM44_m0.n.1.pdb.xyz.mst.n.w.chk"
 -------------------
 SM44_m0.n.1.pdb.xyz
 -------------------
 Charge =  0 Multiplicity = 1

 SCF Done:  E(RB3LYP) =  -1116.53820850     A.U. after    1 cycles

  Exact polarizability: 270.712 -12.412 196.359 -13.165  -7.994  96.276
 Approx polarizability: 292.639 -16.260 238.931 -18.946 -12.363 121.705

                      1                      2                      3
                      A                      A                      A
 Frequencies --     23.8840                31.2862                51.5227
 Red. masses --      6.0274                 4.6349                 5.3554
 Frc consts  --      0.0020                 0.0027                 0.0084
 IR Inten    --      5.3343                 4.8199                 0.8129

                      4                      5                      6
                      A                      A                      A
 Frequencies --     67.2447               104.3958               148.1525
 Red. masses --      6.3832                 6.2848                 4.8122
 Frc consts  --      0.0170                 0.0404                 0.0622
 IR Inten    --      8.2402                 1.5553                 2.6191

                      7                      8                      9
                      A                      A                      A
 Frequencies --    235.5444               239.7448               262.1855
 Red. masses --      5.1620                 1.2726                 5.2708
 Frc consts  --      0.1687                 0.0431                 0.2135
 IR Inten    --      7.3987                 0.2052                 2.2308

                     10                     11                     12
                      A                      A                      A
 Frequencies --    270.4279               328.5309               343.2664
 Red. masses --      2.9745                 5.2505                 4.8229
 Frc consts  --      0.1282                 0.3339                 0.3348
 IR Inten    --      6.3256                 2.2517                 4.5868

                     13                     14                     15
                      A                      A                      A
 Frequencies --    371.6876               398.9711               418.2559
 Red. masses --      2.6950                 7.3579                 3.0610
 Frc consts  --      0.2194                 0.6901                 0.3155
 IR Inten    --     42.4306                10.5452                 0.4311

                     16                     17                     18
                      A                      A                      A
 Frequencies --    457.7636               476.2566               491.9799
 Red. masses --      4.2197                 4.3399                 5.7196
 Frc consts  --      0.5210                 0.5800                 0.8157
 IR Inten    --     54.9374                33.9323                56.4829

                     19                     20                     21
                      A                      A                      A
 Frequencies --    531.9439               557.1798               627.8637
 Red. masses --      3.6581                 5.3042                 6.3524
 Frc consts  --      0.6099                 0.9702                 1.4754
 IR Inten    --    135.2094                96.3708                 0.3192

                     22                     23                     24
                      A                      A                      A
 Frequencies --    663.8769               695.9371               703.9011
 Red. masses --      3.2139                 4.7713                 2.8240
 Frc consts  --      0.8346                 1.3615                 0.8244
 IR Inten    --      7.2277                14.7434                22.6364

                     25                     26                     27
                      A                      A                      A
 Frequencies --    708.9617               735.2474               779.5222
 Red. masses --      5.7153                 4.9514                 1.6236
 Frc consts  --      1.6925                 1.5770                 0.5813
 IR Inten    --     10.7912                54.9476                75.4059

                     28                     29                     30
                      A                      A                      A
 Frequencies --    804.1442               824.1475               852.2884
 Red. masses --      1.7104                 3.7169                 1.2540
 Frc consts  --      0.6516                 1.4874                 0.5367
 IR Inten    --     35.7267                 3.9621                 0.8184

                     31                     32                     33
                      A                      A                      A
 Frequencies --    885.9782               935.9372               981.9515
 Red. masses --      3.5929                 1.3902                 1.3455
 Frc consts  --      1.6617                 0.7175                 0.7644
 IR Inten    --    203.5623                 6.5589                 0.3054

                     34                     35                     36
                      A                      A                      A
 Frequencies --   1005.8056              1012.0441              1016.4328
 Red. masses --      7.0179                 1.2680                 1.3912
 Frc consts  --      4.1830                 0.7652                 0.8468
 IR Inten    --     34.2283                 0.4433                21.9704

                     37                     38                     39
                      A                      A                      A
 Frequencies --   1019.7180              1023.4491              1049.9094
 Red. masses --      5.2842                 1.4228                 3.0208
 Frc consts  --      3.2374                 0.8781                 1.9619
 IR Inten    --      4.0183                23.6189                 0.9532

                     40                     41                     42
                      A                      A                      A
 Frequencies --   1064.2853              1068.2436              1111.3996
 Red. masses --      2.2696                 3.9901                 1.5704
 Frc consts  --      1.5146                 2.6827                 1.1429
 IR Inten    --     97.5139                68.1379                14.3565

                     43                     44                     45
                      A                      A                      A
 Frequencies --   1113.7168              1188.0926              1200.1282
 Red. masses --      9.2881                 1.1017                 1.1917
 Frc consts  --      6.7877                 0.9163                 1.0113
 IR Inten    --    280.3022                 0.0849                 0.8729

                     46                     47                     48
                      A                      A                      A
 Frequencies --   1229.5597              1244.7500              1283.7582
 Red. masses --      4.1303                 1.9267                 6.4328
 Frc consts  --      3.6790                 1.7589                 6.2462
 IR Inten    --     12.0180                 4.3142               374.1914

                     49                     50                     51
                      A                      A                      A
 Frequencies --   1294.9928              1332.9302              1366.1041
 Red. masses --     12.5116                 2.8152                 3.2172
 Frc consts  --     12.3623                 2.9469                 3.5375
 IR Inten    --     72.6864                48.4985                 1.4472

                     52                     53                     54
                      A                      A                      A
 Frequencies --   1369.8639              1402.8869              1441.6018
 Red. masses --      2.0190                 1.2019                 2.1532
 Frc consts  --      2.2322                 1.3936                 2.6365
 IR Inten    --      6.4609                14.6352               205.5951

                     55                     56                     57
                      A                      A                      A
 Frequencies --   1476.9741              1481.2132              1489.0686
 Red. masses --      1.8593                 1.2879                 1.0571
 Frc consts  --      2.3897                 1.6648                 1.3810
 IR Inten    --      3.5062                 4.6154                 7.3480

                     58                     59                     60
                      A                      A                      A
 Frequencies --   1514.6334              1550.0356              1606.8526
 Red. masses --      2.5853                 2.7681                 6.1664
 Frc consts  --      3.4944                 3.9184                 9.3807
 IR Inten    --     23.9788               112.0792                63.7055

                     61                     62                     63
                      A                      A                      A
 Frequencies --   1655.3499              1657.6505              3113.5741
 Red. masses --      6.4206                 5.7087                 1.0296
 Frc consts  --     10.3659                 9.2421                 5.8808
 IR Inten    --     13.6084                22.7689                 0.0220

                     64                     65                     66
                      A                      A                      A
 Frequencies --   3212.9393              3214.3614              3221.7960
 Red. masses --      1.0863                 1.1068                 1.0899
 Frc consts  --      6.6071                 6.7374                 6.6657
 IR Inten    --      0.0128                 0.0927                17.8709

                     67                     68                     69
                      A                      A                      A
 Frequencies --   3226.1688              3230.4373              3239.7541
 Red. masses --      1.1085                 1.0942                 1.0954
 Frc consts  --      6.7974                 6.7277                 6.7743
 IR Inten    --      0.0468                42.6817                10.9151

                     70                     71                     72
                      A                      A                      A
 Frequencies --   3255.2313              3342.2319              3495.0784
 Red. masses --      1.0932                 1.1007                 1.0753
 Frc consts  --      6.8252                 7.2440                 7.7393
 IR Inten    --      2.3568                 7.8998               169.5381

 - Thermochemistry -
 -------------------
 Temperature   298.150 Kelvin.  Pressure   1.00000 Atm.
 Atom     1 has atomic number  8 and mass  15.99491

 Molecular mass:   238.05245 amu.
 Principal axes and moments of inertia in atomic units:
                           1         2         3
     Eigenvalues --  1211.114058709.878719436.14688
           X            0.99996   0.00793  -0.00360
           Y           -0.00791   0.99996   0.00337
           Z            0.00362  -0.00334   0.99999
 This molecule is an asymmetric top.
 Rotational symmetry number  1.
 Warning -- assumption of classical behavior for rotation
           may cause significant error
 Rotational temperatures (Kelvin)      0.07152     0.00994     0.00918
 Rotational constants (GHZ):           1.49015     0.20721     0.19126
 Zero-point vibrational energy     513395.4 (Joules/Mol)
                                  122.70444 (Kcal/Mol)
 Warning -- explicit consideration of  20 degrees of freedom as
           vibrations may cause significant error
 Vibrational temperatures:     34.36    45.01    74.13    96.75   150.20
          (Kelvin)            213.16   338.90   344.94   377.23   389.09
                              472.68   493.88   534.78   574.03   601.78
                              658.62   685.23   707.85   765.35   801.66
                              903.36   955.17  1001.30  1012.76  1020.04
                             1057.86  1121.56  1156.98  1185.76  1226.25
                             1274.73  1346.60  1412.81  1447.13  1456.11
                             1462.42  1467.15  1472.52  1510.59  1531.27
                             1536.96  1599.06  1602.39  1709.40  1726.72
                             1769.06  1790.92  1847.04  1863.21  1917.79
                             1965.52  1970.93  2018.44  2074.14  2125.04
                             2131.14  2142.44  2179.22  2230.16  2311.90
                             2381.68  2384.99  4479.74  4622.70  4624.75
                             4635.45  4641.74  4647.88  4661.28  4683.55
                             4808.73  5028.64

 Zero-point correction=                           0.195542 (Hartree/Particle)
 Thermal correction to Energy=                    0.209508
 Thermal correction to Enthalpy=                  0.210452
 Thermal correction to Gibbs Free Energy=         0.152404
 Sum of electronic and zero-point Energies=          -1116.342667
 Sum of electronic and thermal Energies=             -1116.328701
 Sum of electronic and thermal Enthalpies=           -1116.327757
 Sum of electronic and thermal Free Energies=        -1116.385805

                     E (Thermal)             CV                S
                      KCal/Mol        Cal/Mol-Kelvin    Cal/Mol-Kelvin
 Total                  131.468             53.059            122.172
 Electronic               0.000              0.000              0.000
 Translational            0.889              2.981             42.303
 Rotational               0.889              2.981             32.965
 Vibrational            129.691             47.098             46.904
 Vibration     1          0.593              1.985              6.282
 Vibration     2          0.594              1.983              5.746
 Vibration     3          0.596              1.977              4.758
 Vibration     4          0.598              1.970              4.232
 Vibration     5          0.605              1.946              3.371
 Vibration     6          0.618              1.905              2.696
 Vibration     7          0.655              1.786              1.836
 Vibration     8          0.657              1.780              1.805
 Vibration     9          0.669              1.742              1.647
 Vibration    10          0.674              1.728              1.593
 Vibration    11          0.712              1.618              1.267
 Vibration    12          0.722              1.589              1.197
 Vibration    13          0.743              1.530              1.073
 Vibration    14          0.765              1.472              0.966
 Vibration    15          0.781              1.431              0.898
 Vibration    16          0.816              1.344              0.773
 Vibration    17          0.833              1.303              0.720
 Vibration    18          0.848              1.268              0.678
 Vibration    19          0.887              1.179              0.583
 Vibration    20          0.913              1.124              0.529

                           ! Non-Optimized Parameters !
 Normal termination of Gaussian 16 at Wed Sep 23 05:32:37 2020.

 ----------------------------------------------------------------------
 #p b3lyp/6-31G(d) scrf=(iefpcm,read,solvent=water) geom=allcheck guess
 =read
 ----------------------------------------------------------------------

 Structure from the checkpoint file:  "SM44_m0.n.1.pdb.xyz.mst.n.w.chk"
 -------------------
 SM44_m0.n.1.pdb.xyz
 -------------------
 Charge =  0 Multiplicity = 1

 SCF Done:  E(RB3LYP) =  -1116.53821363     A.U. after    5 cycles
 Normal termination of Gaussian 16 at Wed Sep 23 05:32:59 2020.

 -----------------------------
 #p B3LYP/6-31G* geom=allcheck
 -----------------------------

 Structure from the checkpoint file:  "SM44_m0.n.1.pdb.xyz.mst.n.w.chk"
 -------------------
 SM44_m0.n.1.pdb.xyz
 -------------------
 Charge =  0 Multiplicity = 1

 SCF Done:  E(RB3LYP) =  -1116.51138408     A.U. after   15 cycles
 Normal termination of Gaussian 16 at Wed Sep 23 05:33:26 2020.
 Gaussian 16:  ES64L-G16RevB.01 20-Dec-2017

 ----------------------------------------------------------------------
 #p mp2/aug-cc-pVDZ scf=(MaxCycle=2000,NoVarAcc,NoIncFock) maxdisk=120G
 B geom=allcheck
 ----------------------------------------------------------------------

 Structure from the checkpoint file:  "SM44_m0.n.1.pdb.xyz.mst.n.w.chk"
 -------------------
 SM44_m0.n.1.pdb.xyz
 -------------------
 Charge =  0 Multiplicity = 1

                         Standard orientation:
 ---------------------------------------------------------------------
 Center     Atomic      Atomic             Coordinates (Angstroms)
 Number     Number       Type             X           Y           Z
 ---------------------------------------------------------------------
      1          8           0        2.807194    0.250891    1.566321
      2         16           0        3.380007    0.236095    0.212175
      3          7           0        2.310378   -0.525971   -0.878550
      4          6           0        0.966674   -0.704215   -0.503551
      5          7           0        0.500915   -1.862574    0.042595
      6          7           0       -0.784090   -1.745876    0.245899
      7          6           0       -0.085230    0.175690   -0.640689
      8          7           0       -1.151457   -0.504117   -0.153526
      9          6           0       -2.505035   -0.071547   -0.046112
     10          6           0       -2.788721    1.295353   -0.008195
     11          6           0       -4.115935    1.711594    0.085380
     12          6           0       -5.146799    0.772507    0.154314
     13          6           0       -4.846858   -0.591074    0.123717
     14          6           0       -3.526290   -1.022990    0.016951
     15          6           0        3.435227    1.917847   -0.394983
     16          8           0        4.685148   -0.400775   -0.017108
     17          1           0        2.755637   -1.386685   -1.206426
     18          1           0       -0.153927    1.170138   -1.045077
     19          1           0       -1.985374    2.021237   -0.040625
     20          1           0       -4.339784    2.772356    0.113354
     21          1           0       -6.177327    1.101037    0.231372
     22          1           0       -5.643271   -1.325190    0.173679
     23          1           0       -3.280516   -2.076139   -0.021285
     24          1           0        2.435823    2.346937   -0.336307
     25          1           0        3.794762    1.901965   -1.422688
     26          1           0        4.122698    2.466668    0.249584
 ---------------------------------------------------------------------

 SCF Done:  E(RHF) =  -1111.63841058     A.U. after   17 cycles
 E2 =    -0.2476955099D+01 EUMP2 =    -0.11141153656772D+04

 The electronic state is 1-A.
 Alpha  occ. eigenvalues --  -92.23116 -20.56460 -20.56325 -15.69255 -15.66582
 Alpha  occ. eigenvalues --  -15.63109 -15.62462 -11.32166 -11.31934 -11.31033
 Alpha  occ. eigenvalues --  -11.29756 -11.27208 -11.26924 -11.26701 -11.26496
 Alpha  occ. eigenvalues --  -11.26261  -9.19963  -6.88483  -6.88447  -6.88323
 Alpha  occ. eigenvalues --   -1.46508  -1.45886  -1.34090  -1.27639  -1.23982
 Alpha  occ. eigenvalues --   -1.16964  -1.09516  -1.05469  -1.04683  -1.03806
 Alpha  occ. eigenvalues --   -0.90945  -0.89124  -0.85645  -0.82669  -0.82186
 Alpha  occ. eigenvalues --   -0.77399  -0.72264  -0.71386  -0.69161  -0.68357
 Alpha  occ. eigenvalues --   -0.67052  -0.66910  -0.65222  -0.64026  -0.62414
 Alpha  occ. eigenvalues --   -0.61597  -0.61363  -0.60424  -0.55001  -0.54247
 Alpha  occ. eigenvalues --   -0.53705  -0.52464  -0.51952  -0.49952  -0.48743
 Alpha  occ. eigenvalues --   -0.47004  -0.46947  -0.45211  -0.44317  -0.37241
 Alpha  occ. eigenvalues --   -0.36286  -0.33558
 Alpha virt. eigenvalues --    0.02112   0.03005   0.03658   0.04188   0.04581
 Alpha virt. eigenvalues --    0.05366   0.05998   0.06150   0.06963   0.07473
 Alpha virt. eigenvalues --    0.07911   0.08617   0.09858   0.10252   0.10992

 Mulliken charges:
               1
     1  O   -1.159732
     2  S    2.723948
     3  N   -1.070542
     4  C    1.023369
     5  N   -0.670431
     6  N   -0.367745
     7  C    0.949032
     8  N   -0.735011
     9  C    0.908017
    10  C    0.142422
    11  C    0.611694
    12  C    0.589019
    13  C    0.602660
    14  C    0.447764
    15  C    0.087995
    16  O   -1.157970
    17  H   -0.017220
    18  H   -0.505869
    19  H   -0.640245
    20  H   -0.440091
    21  H   -0.444176
    22  H   -0.430559
    23  H   -0.526196
    24  H   -0.015496
    25  H    0.031033
    26  H    0.064330
 Sum of Mulliken charges =  -0.00000

 Dipole moment (field-independent basis, Debye):
    X=             -4.5898    Y=              5.4959    Z=             -4.0529  Tot=              8.2278
 Quadrupole moment (field-independent basis, Debye-Ang):
   XX=           -100.6284   YY=            -93.5736   ZZ=           -108.8090
   XY=              9.2963   XZ=             -9.8014   YZ=              0.8104

 Normal termination of Gaussian 16 at Wed Sep 23 05:52:00 2020.
