 Gaussian 16, Revision B.01,

 ----------------------------------------------------------------------
 #p b3lyp/6-31G(d) opt freq NoSymm scf=(MaxCycle=2000,NoVarAcc,NoIncFoc
 k) scrf=(iefpcm,read,solvent=water)
 ----------------------------------------------------------------------

 -------------------
 SM44_m0.n.3.pdb.xyz
 -------------------
 Symbolic Z-matrix:
 Charge =  0 Multiplicity = 1

 SCF Done:  E(RB3LYP) =  -1116.53835176     A.U. after   13 cycles
 SCF Done:  E(RB3LYP) =  -1116.53847442     A.U. after   10 cycles
 SCF Done:  E(RB3LYP) =  -1116.53858631     A.U. after   10 cycles
 SCF Done:  E(RB3LYP) =  -1116.53861860     A.U. after    9 cycles
 SCF Done:  E(RB3LYP) =  -1116.53863236     A.U. after    9 cycles
 SCF Done:  E(RB3LYP) =  -1116.53864128     A.U. after    8 cycles
 SCF Done:  E(RB3LYP) =  -1116.53865479     A.U. after    9 cycles
 SCF Done:  E(RB3LYP) =  -1116.53865866     A.U. after    7 cycles
 SCF Done:  E(RB3LYP) =  -1116.53866097     A.U. after    7 cycles
 SCF Done:  E(RB3LYP) =  -1116.53865962     A.U. after    7 cycles
 SCF Done:  E(RB3LYP) =  -1116.53865860     A.U. after    7 cycles
 SCF Done:  E(RB3LYP) =  -1116.53865848     A.U. after    7 cycles
 SCF Done:  E(RB3LYP) =  -1116.53865830     A.U. after    7 cycles
 Optimization completed on the basis of negligible forces.
    -- Stationary point found.
 Normal termination of Gaussian 16 at Wed Sep 23 05:28:01 2020.

 --------------------------------------------------------------------
 #P Geom=AllCheck Guess=TCheck SCRF=Check GenChk RB3LYP/6-31G(d) Freq
 --------------------------------------------------------------------

 Structure from the checkpoint file:  "SM44_m0.n.3.pdb.xyz.mst.n.w.chk"
 -------------------
 SM44_m0.n.3.pdb.xyz
 -------------------
 Charge =  0 Multiplicity = 1

 SCF Done:  E(RB3LYP) =  -1116.53865830     A.U. after    1 cycles

  Exact polarizability: 267.432   9.337 182.945  22.805 -23.496 113.151
 Approx polarizability: 286.738   9.817 231.891  31.084 -32.852 134.741

                      1                      2                      3
                      A                      A                      A
 Frequencies --     31.9869                35.4471                52.1152
 Red. masses --      4.1688                 7.0213                 5.5024
 Frc consts  --      0.0025                 0.0052                 0.0088
 IR Inten    --      4.7862                 1.0109                 6.5219

                      4                      5                      6
                      A                      A                      A
 Frequencies --     84.4895               109.4518               124.5210
 Red. masses --      5.6982                 5.1400                 6.4153
 Frc consts  --      0.0240                 0.0363                 0.0586
 IR Inten    --     10.6640                 0.4755                 1.2399

                      7                      8                      9
                      A                      A                      A
 Frequencies --    216.6281               231.8641               257.3556
 Red. masses --      1.3201                 2.2529                 6.7125
 Frc consts  --      0.0365                 0.0714                 0.2619
 IR Inten    --      1.5227                 1.1784                 1.8072

                     10                     11                     12
                      A                      A                      A
 Frequencies --    279.2273               300.4396               339.8227
 Red. masses --      7.7044                 4.2746                 4.1507
 Frc consts  --      0.3539                 0.2273                 0.2824
 IR Inten    --      2.2476                 5.2122                 2.3058

                     13                     14                     15
                      A                      A                      A
 Frequencies --    393.7497               410.0999               418.5365
 Red. masses --      7.7217                 4.4818                 3.0176
 Frc consts  --      0.7054                 0.4441                 0.3114
 IR Inten    --      3.7213                26.6595                 0.2504

                     16                     17                     18
                      A                      A                      A
 Frequencies --    456.4412               484.0966               503.0173
 Red. masses --      5.5104                 4.4510                 3.1491
 Frc consts  --      0.6764                 0.6146                 0.4695
 IR Inten    --     21.7028                41.3419                52.7702

                     19                     20                     21
                      A                      A                      A
 Frequencies --    533.5872               566.6734               627.7517
 Red. masses --      3.2134                 4.4922                 6.3801
 Frc consts  --      0.5390                 0.8499                 1.4813
 IR Inten    --    105.7052               127.2548                 0.5196

                     22                     23                     24
                      A                      A                      A
 Frequencies --    664.1531               696.8831               704.3895
 Red. masses --      3.4207                 5.7674                 2.3559
 Frc consts  --      0.8890                 1.6503                 0.6887
 IR Inten    --     10.0088                18.3767                26.7501

                     25                     26                     27
                      A                      A                      A
 Frequencies --    718.4306               741.9237               781.0550
 Red. masses --      8.1916                 5.8860                 1.6324
 Frc consts  --      2.4911                 1.9089                 0.5867
 IR Inten    --     15.9492               143.7198                81.2431

                     28                     29                     30
                      A                      A                      A
 Frequencies --    789.3859               824.5625               850.5121
 Red. masses --      1.9590                 2.7782                 3.0482
 Frc consts  --      0.7192                 1.1129                 1.2992
 IR Inten    --     17.9791                 2.8374                84.6989

                     31                     32                     33
                      A                      A                      A
 Frequencies --    852.3455               935.1793               982.4833
 Red. masses --      1.2624                 1.3917                 1.3443
 Frc consts  --      0.5404                 0.7171                 0.7645
 IR Inten    --      2.7743                 5.8349                 0.2177

                     34                     35                     36
                      A                      A                      A
 Frequencies --   1005.2694              1012.1024              1012.5061
 Red. masses --      6.3367                 1.4327                 1.3664
 Frc consts  --      3.7729                 0.8647                 0.8253
 IR Inten    --     46.5992                52.3533                23.4399

                     37                     38                     39
                      A                      A                      A
 Frequencies --   1012.9921              1019.8088              1045.1683
 Red. masses --      1.2726                 6.1019                 3.4508
 Frc consts  --      0.7694                 3.7390                 2.2210
 IR Inten    --      1.3185                 0.0863                 6.3023

                     40                     41                     42
                      A                      A                      A
 Frequencies --   1061.2576              1064.2707              1107.2681
 Red. masses --      2.0891                 4.0696                 1.5269
 Frc consts  --      1.3863                 2.7159                 1.1030
 IR Inten    --     37.4408               107.4124                11.5447

                     43                     44                     45
                      A                      A                      A
 Frequencies --   1123.3255              1189.0435              1197.2532
 Red. masses --     12.0258                 1.1118                 1.1826
 Frc consts  --      8.9408                 0.9261                 0.9988
 IR Inten    --    412.5736                 0.1734                 0.5476

                     46                     47                     48
                      A                      A                      A
 Frequencies --   1222.9446              1231.5725              1290.2914
 Red. masses --      2.3716                 2.8962                 5.9148
 Frc consts  --      2.0898                 2.5882                 5.8018
 IR Inten    --     13.2590                 3.9689               182.7548

                     49                     50                     51
                      A                      A                      A
 Frequencies --   1305.6332              1344.0612              1362.9778
 Red. masses --     12.1038                 2.4277                 2.6408
 Frc consts  --     12.1567                 2.5840                 2.8904
 IR Inten    --    223.9537                65.7883                 3.8698

                     52                     53                     54
                      A                      A                      A
 Frequencies --   1381.6557              1392.1145              1421.8432
 Red. masses --      3.3236                 1.2025                 2.0712
 Frc consts  --      3.7382                 1.3730                 2.4671
 IR Inten    --    120.7461                17.7452                16.3734

                     55                     56                     57
                      A                      A                      A
 Frequencies --   1478.2970              1481.2760              1483.8406
 Red. masses --      1.2438                 1.0906                 1.8004
 Frc consts  --      1.6014                 1.4098                 2.3356
 IR Inten    --     17.4596                 4.4448                19.9792

                     58                     59                     60
                      A                      A                      A
 Frequencies --   1513.0380              1547.9890              1589.4400
 Red. masses --      2.5874                 2.7774                 6.3516
 Frc consts  --      3.4899                 3.9213                 9.4541
 IR Inten    --     14.9697               129.3683                86.3084

                     61                     62                     63
                      A                      A                      A
 Frequencies --   1653.7897              1656.4680              3108.3861
 Red. masses --      6.4302                 5.7178                 1.0293
 Frc consts  --     10.3618                 9.2437                 5.8596
 IR Inten    --      7.0724                24.0627                 0.0443

                     64                     65                     66
                      A                      A                      A
 Frequencies --   3210.0744              3211.6332              3219.4741
 Red. masses --      1.1074                 1.0865                 1.1084
 Frc consts  --      6.7233                 6.6029                 6.7689
 IR Inten    --      0.2978                 0.4244                 0.1300

                     67                     68                     69
                      A                      A                      A
 Frequencies --   3222.3070              3229.2477              3238.5610
 Red. masses --      1.0894                 1.0935                 1.0961
 Frc consts  --      6.6648                 6.7185                 6.7734
 IR Inten    --     14.5034                39.0387                13.7164

                     70                     71                     72
                      A                      A                      A
 Frequencies --   3252.7209              3334.5868              3496.6066
 Red. masses --      1.0935                 1.1006                 1.0764
 Frc consts  --      6.8164                 7.2105                 7.7538
 IR Inten    --      2.5211                 8.0091               150.5606

 - Thermochemistry -
 -------------------
 Temperature   298.150 Kelvin.  Pressure   1.00000 Atm.
 Atom     1 has atomic number  8 and mass  15.99491

 Molecular mass:   238.05245 amu.
 Principal axes and moments of inertia in atomic units:
                           1         2         3
     Eigenvalues --  1139.748789109.709989454.31544
           X            0.99998  -0.00632  -0.00236
           Y            0.00634   0.99993   0.00965
           Z            0.00230  -0.00967   0.99995
 This molecule is an asymmetric top.
 Rotational symmetry number  1.
 Warning -- assumption of classical behavior for rotation
           may cause significant error
 Rotational temperatures (Kelvin)      0.07599     0.00951     0.00916
 Rotational constants (GHZ):           1.58346     0.19811     0.19089
 Zero-point vibrational energy     512777.5 (Joules/Mol)
                                  122.55676 (Kcal/Mol)
 Warning -- explicit consideration of  20 degrees of freedom as
           vibrations may cause significant error
 Vibrational temperatures:     46.02    51.00    74.98   121.56   157.48
          (Kelvin)            179.16   311.68   333.60   370.28   401.75
                              432.27   488.93   566.52   590.04   602.18
                              656.72   696.51   723.73   767.71   815.32
                              903.19   955.57  1002.66  1013.46  1033.66
                             1067.46  1123.76  1135.75  1186.36  1223.70
                             1226.34  1345.51  1413.57  1446.36  1456.19
                             1456.77  1457.47  1467.28  1503.76  1526.91
                             1531.25  1593.11  1616.21  1710.77  1722.58
                             1759.54  1771.96  1856.44  1878.52  1933.80
                             1961.02  1987.89  2002.94  2045.72  2126.94
                             2131.23  2134.92  2176.92  2227.21  2286.85
                             2379.43  2383.29  4472.27  4618.58  4620.82
                             4632.11  4636.18  4646.17  4659.57  4679.94
                             4797.73  5030.84

 Zero-point correction=                           0.195307 (Hartree/Particle)
 Thermal correction to Energy=                    0.209270
 Thermal correction to Enthalpy=                  0.210214
 Thermal correction to Gibbs Free Energy=         0.152590
 Sum of electronic and zero-point Energies=          -1116.343352
 Sum of electronic and thermal Energies=             -1116.329388
 Sum of electronic and thermal Enthalpies=           -1116.328444
 Sum of electronic and thermal Free Energies=        -1116.386068

                     E (Thermal)             CV                S
                      KCal/Mol        Cal/Mol-Kelvin    Cal/Mol-Kelvin
 Total                  131.319             53.102            121.280
 Electronic               0.000              0.000              0.000
 Translational            0.889              2.981             42.303
 Rotational               0.889              2.981             32.951
 Vibrational            129.542             47.140             46.026
 Vibration     1          0.594              1.983              5.702
 Vibration     2          0.594              1.982              5.499
 Vibration     3          0.596              1.977              4.735
 Vibration     4          0.601              1.960              3.784
 Vibration     5          0.606              1.942              3.279
 Vibration     6          0.610              1.928              3.029
 Vibration     7          0.645              1.816              1.987
 Vibration     8          0.653              1.792              1.864
 Vibration     9          0.667              1.750              1.680
 Vibration    10          0.680              1.712              1.538
 Vibration    11          0.693              1.673              1.414
 Vibration    12          0.720              1.596              1.213
 Vibration    13          0.761              1.484              0.986
 Vibration    14          0.774              1.448              0.926
 Vibration    15          0.781              1.430              0.897
 Vibration    16          0.815              1.347              0.777
 Vibration    17          0.840              1.285              0.699
 Vibration    18          0.858              1.243              0.651
 Vibration    19          0.889              1.176              0.579
 Vibration    20          0.923              1.103              0.511

 Optimization completed.
    -- Stationary point found.
 Normal termination of Gaussian 16 at Wed Sep 23 05:33:53 2020.

 ----------------------------------------------------------------------
 #p b3lyp/6-31G(d) scrf=(iefpcm,read,solvent=water) geom=allcheck guess
 =read
 ----------------------------------------------------------------------

 Structure from the checkpoint file:  "SM44_m0.n.3.pdb.xyz.mst.n.w.chk"
 -------------------
 SM44_m0.n.3.pdb.xyz
 -------------------
 Charge =  0 Multiplicity = 1

 SCF Done:  E(RB3LYP) =  -1116.53866460     A.U. after    6 cycles
 Normal termination of Gaussian 16 at Wed Sep 23 05:34:17 2020.

 -----------------------------
 #p B3LYP/6-31G* geom=allcheck
 -----------------------------

 Structure from the checkpoint file:  "SM44_m0.n.3.pdb.xyz.mst.n.w.chk"
 -------------------
 SM44_m0.n.3.pdb.xyz
 -------------------
 Charge =  0 Multiplicity = 1

 SCF Done:  E(RB3LYP) =  -1116.50355031     A.U. after   15 cycles
 Normal termination of Gaussian 16 at Wed Sep 23 05:34:46 2020.
 Gaussian 16:  ES64L-G16RevB.01 20-Dec-2017

 ----------------------------------------------------------------------
 #p mp2/aug-cc-pVDZ scf=(MaxCycle=2000,NoVarAcc,NoIncFock) maxdisk=120G
 B geom=allcheck
 ----------------------------------------------------------------------

 Structure from the checkpoint file:  "SM44_m0.n.3.pdb.xyz.mst.n.w.chk"
 -------------------
 SM44_m0.n.3.pdb.xyz
 -------------------
 Charge =  0 Multiplicity = 1

                         Standard orientation:
 ---------------------------------------------------------------------
 Center     Atomic      Atomic             Coordinates (Angstroms)
 Number     Number       Type             X           Y           Z
 ---------------------------------------------------------------------
      1          8           0        4.715997   -0.547826   -0.426000
      2         16           0        3.471616   -0.095603    0.208326
      3          7           0        2.289341   -0.238324   -0.999093
      4          6           0        0.962982    0.155774   -0.731885
      5          7           0        0.589049    1.465827   -0.755501
      6          7           0       -0.692016    1.542701   -0.515294
      7          6           0       -0.148873   -0.618438   -0.467236
      8          7           0       -1.157362    0.279299   -0.349498
      9          6           0       -2.539520    0.040708   -0.091371
     10          6           0       -3.121018   -1.161406   -0.499368
     11          6           0       -4.470556   -1.387603   -0.233048
     12          6           0       -5.233635   -0.417782    0.419816
     13          6           0       -4.640706    0.784220    0.813955
     14          6           0       -3.288885    1.018896    0.567277
     15          6           0        3.033836   -1.249396    1.511952
     16          8           0        3.377439    1.266610    0.744426
     17          1           0        2.372726   -1.140754   -1.472527
     18          1           0       -0.282517   -1.680408   -0.351758
     19          1           0       -2.533449   -1.903179   -1.027536
     20          1           0       -4.924997   -2.320549   -0.547612
     21          1           0       -6.284205   -0.597198    0.620208
     22          1           0       -5.227114    1.540163    1.324833
     23          1           0       -2.812401    1.939200    0.879695
     24          1           0        3.051112   -2.258741    1.102113
     25          1           0        2.043095   -0.994829    1.886829
     26          1           0        3.779572   -1.140679    2.300290
 ---------------------------------------------------------------------

 SCF Done:  E(RHF) =  -1111.63174602     A.U. after   17 cycles
 E2 =    -0.2477231426D+01 EUMP2 =    -0.11141089774423D+04

 The electronic state is 1-A.
 Alpha  occ. eigenvalues --  -92.22918 -20.56051 -20.55718 -15.69421 -15.66790
 Alpha  occ. eigenvalues --  -15.63523 -15.62466 -11.32675 -11.32200 -11.31560
 Alpha  occ. eigenvalues --  -11.29773 -11.27546 -11.27218 -11.27011 -11.26833
 Alpha  occ. eigenvalues --  -11.26601  -9.19728  -6.88252  -6.88220  -6.88102
 Alpha  occ. eigenvalues --   -1.46564  -1.45769  -1.33741  -1.27764  -1.24348
 Alpha  occ. eigenvalues --   -1.17268  -1.09708  -1.05250  -1.04978  -1.04089
 Alpha  occ. eigenvalues --   -0.91166  -0.89338  -0.86104  -0.83622  -0.81302
 Alpha  occ. eigenvalues --   -0.77349  -0.73188  -0.71876  -0.69428  -0.68466
 Alpha  occ. eigenvalues --   -0.67528  -0.66847  -0.65068  -0.63926  -0.63122
 Alpha  occ. eigenvalues --   -0.61832  -0.61559  -0.60365  -0.54642  -0.54101
 Alpha  occ. eigenvalues --   -0.53946  -0.52646  -0.50933  -0.49618  -0.49169
 Alpha  occ. eigenvalues --   -0.46860  -0.46676  -0.45160  -0.44240  -0.37609
 Alpha  occ. eigenvalues --   -0.36611  -0.33922
 Alpha virt. eigenvalues --    0.01594   0.02745   0.03284   0.03936   0.04461
 Alpha virt. eigenvalues --    0.04985   0.05700   0.06196   0.06875   0.07492
 Alpha virt. eigenvalues --    0.07849   0.08462   0.09636   0.09906   0.10607

 Mulliken charges:
               1
     1  O   -1.131185
     2  S    2.592382
     3  N   -0.839444
     4  C    0.638812
     5  N   -0.579967
     6  N   -0.433932
     7  C    1.093731
     8  N   -0.639785
     9  C    0.878224
    10  C    0.088875
    11  C    0.762476
    12  C    0.579325
    13  C    0.573715
    14  C    0.427807
    15  C    0.079394
    16  O   -1.127463
    17  H   -0.057740
    18  H   -0.492669
    19  H   -0.652534
    20  H   -0.435684
    21  H   -0.443515
    22  H   -0.425352
    23  H   -0.527198
    24  H    0.022559
    25  H    0.029468
    26  H    0.019699
 Sum of Mulliken charges =  -0.00000

 Dipole moment (field-independent basis, Debye):
    X=             -6.8156    Y=             -7.3423    Z=              1.9864  Tot=             10.2131
 Quadrupole moment (field-independent basis, Debye-Ang):
   XX=           -112.6614   YY=           -100.2478   ZZ=            -99.7318
   XY=            -10.3231   XZ=              3.9510   YZ=              3.2082

 Normal termination of Gaussian 16 at Wed Sep 23 05:58:13 2020.
