 Gaussian 16, Revision B.01,

 ----------------------------------------------------------------------
 #p b3lyp/6-31G(d) opt freq NoSymm scf=(MaxCycle=2000,NoVarAcc,NoIncFoc
 k) scrf=(iefpcm,read,solvent=water)
 ----------------------------------------------------------------------

 --------------------
 SM44_m2.b.10.pdb.xyz
 --------------------
 Symbolic Z-matrix:
 Charge =  1 Multiplicity = 1

 SCF Done:  E(RB3LYP) =  -1116.98530665     A.U. after   13 cycles
 SCF Done:  E(RB3LYP) =  -1116.98527011     A.U. after    9 cycles
 SCF Done:  E(RB3LYP) =  -1116.98525469     A.U. after    9 cycles
 SCF Done:  E(RB3LYP) =  -1116.98530643     A.U. after   10 cycles
 SCF Done:  E(RB3LYP) =  -1116.98530807     A.U. after    8 cycles
 SCF Done:  E(RB3LYP) =  -1116.98502639     A.U. after   12 cycles
 SCF Done:  E(RB3LYP) =  -1116.98523691     A.U. after   13 cycles
 SCF Done:  E(RB3LYP) =  -1116.98530634     A.U. after   10 cycles
 SCF Done:  E(RB3LYP) =  -1116.98530798     A.U. after    8 cycles
 SCF Done:  E(RB3LYP) =  -1116.98514937     A.U. after   11 cycles
 SCF Done:  E(RB3LYP) =  -1116.98530266     A.U. after    6 cycles
 SCF Done:  E(RB3LYP) =  -1116.98530261     A.U. after    4 cycles
 SCF Done:  E(RB3LYP) =  -1116.98530261     A.U. after    3 cycles
 SCF Done:  E(RB3LYP) =  -1116.98514209     A.U. after   10 cycles
 SCF Done:  E(RB3LYP) =  -1116.98530430     A.U. after   10 cycles
 SCF Done:  E(RB3LYP) =  -1116.98520215     A.U. after   10 cycles
 Optimization completed.
    -- Stationary point found.
 Normal termination of Gaussian 16 at Thu Sep 24 15:00:09 2020.

 --------------------------------------------------------------------
 #P Geom=AllCheck Guess=TCheck SCRF=Check GenChk RB3LYP/6-31G(d) Freq
 --------------------------------------------------------------------

 Structure from the checkpoint file:  "SM44_m2.b.10.pdb.xyz.mst.b.w.chk"
 --------------------
 SM44_m2.b.10.pdb.xyz
 --------------------
 Charge =  1 Multiplicity = 1

 SCF Done:  E(RB3LYP) =  -1116.98520215     A.U. after    1 cycles

  Exact polarizability: 272.630   6.959 181.111 -19.795  23.861 110.668
 Approx polarizability: 288.217   4.947 231.167 -27.897  33.719 131.216

                      1                      2                      3
                      A                      A                      A
 Frequencies --     30.1600                33.6462                51.0243
 Red. masses --      5.1175                 5.6457                 4.6340
 Frc consts  --      0.0027                 0.0038                 0.0071
 IR Inten    --      8.9945                 7.1441                 7.2661

                      4                      5                      6
                      A                      A                      A
 Frequencies --     77.7246               105.1754               122.6970
 Red. masses --      5.2054                 5.0233                 6.0256
 Frc consts  --      0.0185                 0.0327                 0.0534
 IR Inten    --      7.9255                 4.5208                 2.8802

                      7                      8                      9
                      A                      A                      A
 Frequencies --    232.0349               238.5056               258.5139
 Red. masses --      1.8214                 1.8594                 4.2483
 Frc consts  --      0.0578                 0.0623                 0.1673
 IR Inten    --      3.0137                 1.2075                 1.4566

                     10                     11                     12
                      A                      A                      A
 Frequencies --    273.3430               297.4125               337.1731
 Red. masses --      6.4809                 3.6294                 4.3695
 Frc consts  --      0.2853                 0.1891                 0.2927
 IR Inten    --      0.9116                12.3828                 0.3974

                     13                     14                     15
                      A                      A                      A
 Frequencies --    392.5812               404.9722               417.9203
 Red. masses --      6.5418                 4.4998                 2.9842
 Frc consts  --      0.5940                 0.4348                 0.3071
 IR Inten    --      2.8277                15.4407                 0.1129

                     16                     17                     18
                      A                      A                      A
 Frequencies --    452.4320               480.2814               501.7303
 Red. masses --      5.0814                 5.4646                 3.2825
 Frc consts  --      0.6128                 0.7427                 0.4868
 IR Inten    --     14.2493                46.8463                53.1978

                     19                     20                     21
                      A                      A                      A
 Frequencies --    533.0229               554.0676               626.5966
 Red. masses --      2.9063                 4.3633                 6.3918
 Frc consts  --      0.4865                 0.7892                 1.4786
 IR Inten    --    144.6858               110.6724                 0.9965

                     22                     23                     24
                      A                      A                      A
 Frequencies --    653.2123               676.1362               697.0975
 Red. masses --      1.3251                 3.5612                 2.6352
 Frc consts  --      0.3331                 0.9592                 0.7545
 IR Inten    --    110.9923                31.4771                49.7005

                     25                     26                     27
                      A                      A                      A
 Frequencies --    701.5609               705.5729               742.9311
 Red. masses --      3.2509                 4.9545                 6.4725
 Frc consts  --      0.9427                 1.4532                 2.1048
 IR Inten    --     30.0000                23.7018               138.0465

                     28                     29                     30
                      A                      A                      A
 Frequencies --    781.0798               784.4668               825.8788
 Red. masses --      1.6035                 2.1630                 2.2930
 Frc consts  --      0.5764                 0.7842                 0.9215
 IR Inten    --     92.4058                30.2896                 9.5145

                     31                     32                     33
                      A                      A                      A
 Frequencies --    838.0670               850.8470               943.9389
 Red. masses --      3.4028                 1.2651                 1.3693
 Frc consts  --      1.4081                 0.5396                 0.7189
 IR Inten    --    129.7080                 0.0900                 5.9244

                     34                     35                     36
                      A                      A                      A
 Frequencies --    986.5735              1007.2636              1018.6088
 Red. masses --      1.3491                 7.7625                 1.3612
 Frc consts  --      0.7737                 4.6402                 0.8321
 IR Inten    --      0.5371                27.7421                36.6479

                     37                     38                     39
                      A                      A                      A
 Frequencies --   1019.9540              1022.5257              1022.9939
 Red. masses --      1.2851                 6.2379                 1.3541
 Frc consts  --      0.7877                 3.8427                 0.8349
 IR Inten    --      0.1420                 1.4325                59.6996

                     40                     41                     42
                      A                      A                      A
 Frequencies --   1053.7896              1079.1645              1111.3522
 Red. masses --      2.1611                 2.6961                 2.6656
 Frc consts  --      1.4139                 1.8500                 1.9398
 IR Inten    --      5.2654                82.1922                11.5956

                     43                     44                     45
                      A                      A                      A
 Frequencies --   1113.9812              1128.8956              1194.2108
 Red. masses --      1.6136                11.8255                 1.0925
 Frc consts  --      1.1798                 8.8793                 0.9180
 IR Inten    --     31.2352               368.5772                 0.1300

                     46                     47                     48
                      A                      A                      A
 Frequencies --   1204.9307              1223.0396              1246.4572
 Red. masses --      1.1451                 1.9436                 2.7759
 Frc consts  --      0.9796                 1.7129                 2.5410
 IR Inten    --      1.8999                62.7206                 4.5555

                     49                     50                     51
                      A                      A                      A
 Frequencies --   1314.5968              1343.6579              1356.5746
 Red. masses --      7.4347                 2.3893                 3.6089
 Frc consts  --      7.5701                 2.5415                 3.9130
 IR Inten    --    259.6492                15.7180               103.8274

                     52                     53                     54
                      A                      A                      A
 Frequencies --   1368.1095              1397.4880              1402.2059
 Red. masses --      3.0952                 1.2395                 1.9858
 Frc consts  --      3.4133                 1.4263                 2.3004
 IR Inten    --      2.4658                 8.7985                97.6638

                     55                     56                     57
                      A                      A                      A
 Frequencies --   1415.6825              1468.8631              1474.6312
 Red. masses --      2.8758                 2.9463                 1.0503
 Frc consts  --      3.3958                 3.7454                 1.3456
 IR Inten    --     46.5366                11.4729                 7.1987

                     58                     59                     60
                      A                      A                      A
 Frequencies --   1485.1240              1502.5875              1518.6844
 Red. masses --      1.0835                 2.0024                 2.5919
 Frc consts  --      1.4080                 2.6636                 3.5221
 IR Inten    --      7.5318                15.9808                18.4837

                     61                     62                     63
                      A                      A                      A
 Frequencies --   1541.9352              1646.7168              1653.8178
 Red. masses --      2.4287                 5.3395                 5.6390
 Frc consts  --      3.4022                 8.5307                 9.0871
 IR Inten    --     37.0811               260.1922                19.9628

                     64                     65                     66
                      A                      A                      A
 Frequencies --   1663.6109              3107.8792              3210.1769
 Red. masses --      5.8138                 1.0291                 1.1072
 Frc consts  --      9.4801                 5.8564                 6.7225
 IR Inten    --    153.9739                 0.3965                 1.5381

                     67                     68                     69
                      A                      A                      A
 Frequencies --   3218.8675              3222.6106              3231.8304
 Red. masses --      1.0874                 1.1093                 1.0896
 Frc consts  --      6.6383                 6.7877                 6.7054
 IR Inten    --      1.6435                 0.1661                11.5430

                     70                     71                     72
                      A                      A                      A
 Frequencies --   3237.4877              3246.2074              3258.5649
 Red. masses --      1.0933                 1.0962                 1.0940
 Frc consts  --      6.7519                 6.8059                 6.8444
 IR Inten    --     27.1805                 8.6931                 1.1974

                     73                     74                     75
                      A                      A                      A
 Frequencies --   3351.6091              3529.7899              3538.0804
 Red. masses --      1.1021                 1.0868                 1.0773
 Frc consts  --      7.2940                 7.9781                 7.9458
 IR Inten    --     27.6720               621.5692               167.7148

 - Thermochemistry -
 -------------------
 Temperature   298.150 Kelvin.  Pressure   1.00000 Atm.
 Atom     1 has atomic number  8 and mass  15.99491

 Molecular mass:   239.06027 amu.
 Principal axes and moments of inertia in atomic units:
                           1         2         3
     Eigenvalues --  1099.398079308.801559628.08394
           X            0.99998  -0.00585  -0.00258
           Y            0.00558   0.99554  -0.09414
           Z            0.00312   0.09412   0.99556
 This molecule is an asymmetric top.
 Rotational symmetry number  1.
 Warning -- assumption of classical behavior for rotation
           may cause significant error
 Rotational temperatures (Kelvin)      0.07878     0.00930     0.00900
 Rotational constants (GHZ):           1.64157     0.19387     0.18745
 Zero-point vibrational energy     548864.2 (Joules/Mol)
                                  131.18170 (Kcal/Mol)
 Warning -- explicit consideration of  20 degrees of freedom as
           vibrations may cause significant error
 Vibrational temperatures:     43.39    48.41    73.41   111.83   151.32
          (Kelvin)            176.53   333.85   343.16   371.94   393.28
                              427.91   485.12   564.84   582.66   601.29
                              650.95   691.02   721.88   766.90   797.18
                              901.53   939.83   972.81  1002.97  1009.39
                             1015.16  1068.91  1123.80  1128.67  1188.26
                             1205.79  1224.18  1358.12  1419.46  1449.23
                             1465.55  1467.49  1471.19  1471.86  1516.17
                             1552.68  1598.99  1602.77  1624.23  1718.20
                             1733.63  1759.68  1793.37  1891.41  1933.22
                             1951.81  1968.40  2010.67  2017.46  2036.85
                             2113.37  2121.67  2136.76  2161.89  2185.05
                             2218.50  2369.26  2379.47  2393.57  4471.54
                             4618.73  4631.23  4636.62  4649.88  4658.02
                             4670.57  4688.35  4822.22  5078.58  5090.51

 Zero-point correction=                           0.209051 (Hartree/Particle)
 Thermal correction to Energy=                    0.223175
 Thermal correction to Enthalpy=                  0.224119
 Thermal correction to Gibbs Free Energy=         0.166092
 Sum of electronic and zero-point Energies=          -1116.776151
 Sum of electronic and thermal Energies=             -1116.762027
 Sum of electronic and thermal Enthalpies=           -1116.761083
 Sum of electronic and thermal Free Energies=        -1116.819110

                     E (Thermal)             CV                S
                      KCal/Mol        Cal/Mol-Kelvin    Cal/Mol-Kelvin
 Total                  140.044             54.000            122.127
 Electronic               0.000              0.000              0.000
 Translational            0.889              2.981             42.316
 Rotational               0.889              2.981             32.955
 Vibrational            138.267             48.038             46.857
 Vibration     1          0.594              1.984              5.819
 Vibration     2          0.594              1.983              5.602
 Vibration     3          0.595              1.977              4.777
 Vibration     4          0.599              1.964              3.948
 Vibration     5          0.605              1.945              3.356
 Vibration     6          0.610              1.930              3.057
 Vibration     7          0.653              1.792              1.863
 Vibration     8          0.656              1.782              1.814
 Vibration     9          0.667              1.748              1.672
 Vibration    10          0.676              1.723              1.575
 Vibration    11          0.691              1.679              1.431
 Vibration    12          0.718              1.601              1.225
 Vibration    13          0.760              1.486              0.990
 Vibration    14          0.770              1.459              0.945
 Vibration    15          0.781              1.431              0.899
 Vibration    16          0.811              1.356              0.788
 Vibration    17          0.837              1.294              0.709
 Vibration    18          0.857              1.246              0.654
 Vibration    19          0.888              1.177              0.580
 Vibration    20          0.909              1.131              0.536

                           ! Non-Optimized Parameters !
 Normal termination of Gaussian 16 at Thu Sep 24 15:06:17 2020.

 ----------------------------------------------------------------------
 #p b3lyp/6-31G(d) scrf=(iefpcm,read,solvent=water) geom=allcheck guess
 =read
 ----------------------------------------------------------------------

 Structure from the checkpoint file:  "SM44_m2.b.10.pdb.xyz.mst.b.w.chk"
 --------------------
 SM44_m2.b.10.pdb.xyz
 --------------------
 Charge =  1 Multiplicity = 1

 SCF Done:  E(RB3LYP) =  -1116.98521446     A.U. after    7 cycles
 Normal termination of Gaussian 16 at Thu Sep 24 15:06:46 2020.

 -----------------------------
 #p B3LYP/6-31G* geom=allcheck
 -----------------------------

 Structure from the checkpoint file:  "SM44_m2.b.10.pdb.xyz.mst.b.w.chk"
 --------------------
 SM44_m2.b.10.pdb.xyz
 --------------------
 Charge =  1 Multiplicity = 1

 SCF Done:  E(RB3LYP) =  -1116.87884639     A.U. after   16 cycles
 Normal termination of Gaussian 16 at Thu Sep 24 15:07:20 2020.
 Gaussian 16:  ES64L-G16RevB.01 20-Dec-2017

 ----------------------------------------------------------------------
 #p mp2/aug-cc-pVDZ scf=(MaxCycle=2000,NoVarAcc,NoIncFock) maxdisk=120G
 B geom=allcheck
 ----------------------------------------------------------------------

 Structure from the checkpoint file:  "SM44_m2.b.10.pdb.xyz.mst.b.w.chk"
 --------------------
 SM44_m2.b.10.pdb.xyz
 --------------------
 Charge =  1 Multiplicity = 1

                         Standard orientation:
 ---------------------------------------------------------------------
 Center     Atomic      Atomic             Coordinates (Angstroms)
 Number     Number       Type             X           Y           Z
 ---------------------------------------------------------------------
      1          8           0        4.730337   -0.497097   -0.491757
      2         16           0        3.513679   -0.051044    0.185065
      3          7           0        2.236689   -0.539700   -0.854952
      4          6           0        0.943905   -0.090539   -0.651719
      5          7           0        0.570408    1.210974   -0.787696
      6          7           0       -0.715365    1.404833   -0.596751
      7          6           0       -0.226130   -0.758607   -0.355064
      8          7           0       -1.193105    0.198069   -0.347277
      9          6           0       -2.592667    0.024158   -0.084135
     10          6           0       -3.299622    1.059531    0.527452
     11          6           0       -4.657458    0.879079    0.780149
     12          6           0       -5.286561   -0.319641    0.435129
     13          6           0       -4.558710   -1.344105   -0.173187
     14          6           0       -3.201674   -1.177627   -0.443243
     15          6           0        3.304463   -0.984682    1.702026
     16          8           0        3.282175    1.370626    0.452382
     17          1           0        2.299442   -1.529536   -1.097933
     18          1           0       -0.414628   -1.796557   -0.144467
     19          1           0       -2.792312    1.974597    0.803788
     20          1           0       -5.219603    1.673643    1.256996
     21          1           0       -6.342515   -0.454804    0.640689
     22          1           0       -5.045197   -2.272564   -0.448552
     23          1           0       -2.637206   -1.958645   -0.937816
     24          1           0        3.377578   -2.045655    1.465896
     25          1           0        2.336221   -0.739469    2.137240
     26          1           0        4.112932   -0.681919    2.368996
     27          1           0        1.162664    2.014728   -1.008585
 ---------------------------------------------------------------------

 SCF Done:  E(RHF) =  -1112.00251714     A.U. after   17 cycles
 E2 =    -0.2469844030D+01 EUMP2 =    -0.11144723611718D+04

 The electronic state is 1-A.
 Alpha  occ. eigenvalues --  -92.37118 -20.70381 -20.69471 -15.89810 -15.88057
 Alpha  occ. eigenvalues --  -15.87806 -15.79306 -11.53854 -11.48663 -11.44866
 Alpha  occ. eigenvalues --  -11.42307 -11.39928 -11.39409 -11.38303 -11.38149
 Alpha  occ. eigenvalues --  -11.38021  -9.33909  -7.02428  -7.02409  -7.02252
 Alpha  occ. eigenvalues --   -1.68695  -1.60182  -1.48033  -1.47435  -1.42433
 Alpha  occ. eigenvalues --   -1.30525  -1.29487  -1.19840  -1.18209  -1.16811
 Alpha  occ. eigenvalues --   -1.09620  -1.07717  -1.02119  -0.98194  -0.96652
 Alpha  occ. eigenvalues --   -0.94382  -0.89486  -0.88246  -0.87708  -0.86439
 Alpha  occ. eigenvalues --   -0.82937  -0.81946  -0.81162  -0.78645  -0.77327
 Alpha  occ. eigenvalues --   -0.75267  -0.74442  -0.73860  -0.73435  -0.72070
 Alpha  occ. eigenvalues --   -0.70059  -0.66539  -0.65695  -0.64537  -0.64036
 Alpha  occ. eigenvalues --   -0.63083  -0.62518  -0.60726  -0.60347  -0.54105
 Alpha  occ. eigenvalues --   -0.48118  -0.47806
 Alpha virt. eigenvalues --   -0.09738  -0.08156  -0.06094  -0.05806  -0.05075
 Alpha virt. eigenvalues --   -0.04017  -0.03834  -0.03392  -0.02961  -0.02431
 Alpha virt. eigenvalues --   -0.02063  -0.01913  -0.01422  -0.00621  -0.00484

 Mulliken charges:
               1
     1  O   -1.064710
     2  S    2.581376
     3  N   -0.780706
     4  C    0.434309
     5  N   -0.363750
     6  N   -0.287038
     7  C    1.444859
     8  N   -0.575641
     9  C    0.955933
    10  C    0.384311
    11  C    0.587642
    12  C    0.576969
    13  C    0.758703
    14  C    0.112584
    15  C    0.090545
    16  O   -1.125731
    17  H   -0.031629
    18  H   -0.467743
    19  H   -0.521360
    20  H   -0.405416
    21  H   -0.416561
    22  H   -0.411854
    23  H   -0.639831
    24  H    0.041522
    25  H    0.034624
    26  H    0.056008
    27  H    0.032584
 Sum of Mulliken charges =   1.00000

 Dipole moment (field-independent basis, Debye):
    X=             -5.1486    Y=             -3.6553    Z=              1.2719  Tot=              6.4410
 Quadrupole moment (field-independent basis, Debye-Ang):
   XX=            -69.3737   YY=            -82.9001   ZZ=            -93.1175
   XY=             -6.0534   XZ=              6.0823   YZ=             -1.1975

 Normal termination of Gaussian 16 at Thu Sep 24 15:25:34 2020.
