 Gaussian 16, Revision B.01,

 ----------------------------------------------------------------------
 #p b3lyp/6-31G(d) opt freq NoSymm scf=(MaxCycle=2000,NoVarAcc,NoIncFoc
 k) scrf=(iefpcm,read,solvent=water)
 ----------------------------------------------------------------------

 -------------------
 SM44_m1.a.4.pdb.xyz
 -------------------
 Symbolic Z-matrix:
 Charge = -1 Multiplicity = 1

 SCF Done:  E(RB3LYP) =  -1116.06179876     A.U. after   13 cycles
 SCF Done:  E(RB3LYP) =  -1116.06174804     A.U. after   10 cycles
 SCF Done:  E(RB3LYP) =  -1116.06165881     A.U. after   10 cycles
 SCF Done:  E(RB3LYP) =  -1116.06179581     A.U. after   10 cycles
 SCF Done:  E(RB3LYP) =  -1116.06179955     A.U. after    9 cycles
 SCF Done:  E(RB3LYP) =  -1116.06173965     A.U. after   10 cycles
 SCF Done:  E(RB3LYP) =  -1116.06129473     A.U. after   13 cycles
 SCF Done:  E(RB3LYP) =  -1116.06178042     A.U. after   11 cycles
 SCF Done:  E(RB3LYP) =  -1116.06149449     A.U. after   11 cycles
 SCF Done:  E(RB3LYP) =  -1116.06178641     A.U. after   11 cycles
 SCF Done:  E(RB3LYP) =  -1116.06442635     A.U. after   11 cycles
 SCF Done:  E(RB3LYP) =  -1116.06439452     A.U. after   10 cycles
 SCF Done:  E(RB3LYP) =  -1116.06439773     A.U. after    7 cycles
 SCF Done:  E(RB3LYP) =  -1116.06442451     A.U. after   10 cycles
 SCF Done:  E(RB3LYP) =  -1116.06442651     A.U. after    9 cycles
 SCF Done:  E(RB3LYP) =  -1116.06439708     A.U. after   10 cycles
 Optimization completed.
    -- Stationary point found.
 Normal termination of Gaussian 16 at Thu Sep 24 15:08:32 2020.

 --------------------------------------------------------------------
 #P Geom=AllCheck Guess=TCheck SCRF=Check GenChk RB3LYP/6-31G(d) Freq
 --------------------------------------------------------------------

 Structure from the checkpoint file:  "SM44_m1.a.4.pdb.xyz.mst.a.w.chk"
 -------------------
 SM44_m1.a.4.pdb.xyz
 -------------------
 Charge = -1 Multiplicity = 1

 SCF Done:  E(RB3LYP) =  -1116.06439708     A.U. after    1 cycles

  Exact polarizability: 309.049  -1.446 143.233   5.536  50.754 146.752
 Approx polarizability: 320.568   0.540 187.447   4.915  66.555 176.733

                      1                      2                      3
                      A                      A                      A
 Frequencies --     28.4212                32.8110                75.9091
 Red. masses --      4.2697                 7.0057                 5.7678
 Frc consts  --      0.0020                 0.0044                 0.0196
 IR Inten    --      3.0162                 5.0035                 2.1057

                      4                      5                      6
                      A                      A                      A
 Frequencies --     86.0108                99.3276               143.5208
 Red. masses --      5.4995                 7.3222                 5.2067
 Frc consts  --      0.0240                 0.0426                 0.0632
 IR Inten    --     13.8930                 3.1681                 0.6934

                      7                      8                      9
                      A                      A                      A
 Frequencies --    231.7369               239.6001               259.8517
 Red. masses --      5.7015                 1.1099                 5.4967
 Frc consts  --      0.1804                 0.0375                 0.2187
 IR Inten    --      7.1838                 0.8318                 4.7710

                     10                     11                     12
                      A                      A                      A
 Frequencies --    283.0976               317.7521               362.1503
 Red. masses --      4.2695                 4.5659                 6.4148
 Frc consts  --      0.2016                 0.2716                 0.4957
 IR Inten    --      2.1192                 8.2472                11.4818

                     13                     14                     15
                      A                      A                      A
 Frequencies --    382.7755               416.7445               426.3036
 Red. masses --      6.8952                 3.2209                 7.5127
 Frc consts  --      0.5952                 0.3296                 0.8044
 IR Inten    --      7.5256                 1.2897                 6.7134

                     16                     17                     18
                      A                      A                      A
 Frequencies --    476.8866               487.5893               522.1986
 Red. masses --      7.5108                 7.9623                 3.8937
 Frc consts  --      1.0064                 1.1153                 0.6256
 IR Inten    --     41.3484                98.1409                19.1084

                     19                     20                     21
                      A                      A                      A
 Frequencies --    554.2275               628.6723               666.5985
 Red. masses --      5.1576                 6.4222                 3.7042
 Frc consts  --      0.9334                 1.4955                 0.9698
 IR Inten    --     43.0632                 0.0084                 0.5659

                     22                     23                     24
                      A                      A                      A
 Frequencies --    686.2954               696.3761               704.4882
 Red. masses --      6.5042                 2.1887                 2.3464
 Frc consts  --      1.8050                 0.6253                 0.6861
 IR Inten    --     27.7285                 7.8620                21.3776

                     25                     26                     27
                      A                      A                      A
 Frequencies --    709.1513               737.8805               766.0525
 Red. masses --      6.0924                 3.1004                 8.9118
 Frc consts  --      1.8052                 0.9946                 3.0813
 IR Inten    --     23.9128               105.7251               172.3588

                     28                     29                     30
                      A                      A                      A
 Frequencies --    778.1077               853.2519               924.3602
 Red. masses --      1.6497                 1.2524                 6.8589
 Frc consts  --      0.5885                 0.5372                 3.4529
 IR Inten    --     60.9912                 0.2503               131.8221

                     31                     32                     33
                      A                      A                      A
 Frequencies --    929.6320               980.1922               989.0053
 Red. masses --      1.4046                 1.3408                 1.5190
 Frc consts  --      0.7152                 0.7590                 0.8754
 IR Inten    --      7.1805                 0.0599                80.5955

                     34                     35                     36
                      A                      A                      A
 Frequencies --    997.6248               999.9617              1007.9531
 Red. masses --      3.5141                 1.8073                 1.2600
 Frc consts  --      2.0606                 1.0648                 0.7542
 IR Inten    --     56.3934                10.2521                 0.3005

                     37                     38                     39
                      A                      A                      A
 Frequencies --   1018.3561              1050.5062              1059.8066
 Red. masses --      6.0467                 2.8613                 3.1050
 Frc consts  --      3.6946                 1.8604                 2.0548
 IR Inten    --      1.7400                 6.5093                49.2210

                     40                     41                     42
                      A                      A                      A
 Frequencies --   1071.7688              1093.0067              1111.8693
 Red. masses --      2.9069                 4.6465                 1.7399
 Frc consts  --      1.9673                 3.2705                 1.2673
 IR Inten    --    238.1687               630.0782                65.5287

                     43                     44                     45
                      A                      A                      A
 Frequencies --   1187.0750              1202.5948              1206.4740
 Red. masses --      1.1054                 1.3204                 6.9695
 Frc consts  --      0.9178                 1.1251                 5.9771
 IR Inten    --      0.1892                43.5939               412.9389

                     46                     47                     48
                      A                      A                      A
 Frequencies --   1237.0561              1246.6405              1283.1295
 Red. masses --      4.5901                 4.9621                 2.7596
 Frc consts  --      4.1386                 4.5436                 2.6770
 IR Inten    --     70.3172                16.5754               237.5545

                     49                     50                     51
                      A                      A                      A
 Frequencies --   1336.4681              1367.0668              1368.8183
 Red. masses --      3.5239                 2.6708                 1.3558
 Frc consts  --      3.7084                 2.9408                 1.4967
 IR Inten    --    175.9017                24.2813                44.5422

                     52                     53                     54
                      A                      A                      A
 Frequencies --   1380.9525              1452.9411              1479.3925
 Red. masses --      2.5484                 4.4786                 1.0530
 Frc consts  --      2.8633                 5.5704                 1.3579
 IR Inten    --    313.2559               194.7892                 2.3321

                     55                     56                     57
                      A                      A                      A
 Frequencies --   1493.9799              1511.8670              1547.7165
 Red. masses --      1.0526                 2.4988                 2.6696
 Frc consts  --      1.3842                 3.3652                 3.7677
 IR Inten    --      4.7352                26.2150               371.6918

                     58                     59                     60
                      A                      A                      A
 Frequencies --   1584.0884              1652.6171              1659.4391
 Red. masses --      6.4759                 6.3462                 5.6798
 Frc consts  --      9.5744                10.2119                 9.2152
 IR Inten    --    406.7429                 6.6507                44.6986

                     61                     62                     63
                      A                      A                      A
 Frequencies --   3095.7308              3192.2430              3206.4120
 Red. masses --      1.0302                 1.1068                 1.1069
 Frc consts  --      5.8169                 6.6452                 6.7047
 IR Inten    --     10.0258                 9.0117                 1.6059

                     64                     65                     66
                      A                      A                      A
 Frequencies --   3210.3638              3219.8065              3229.6251
 Red. masses --      1.0863                 1.0901                 1.0943
 Frc consts  --      6.5963                 6.6582                 6.7250
 IR Inten    --      1.0732                21.5759                47.3785

                     67                     68                     69
                      A                      A                      A
 Frequencies --   3241.8428              3257.6928              3338.1668
 Red. masses --      1.0946                 1.0927                 1.0981
 Frc consts  --      6.7780                 6.8321                 7.2097
 IR Inten    --     12.1069                 2.1392                 6.0369

 - Thermochemistry -
 -------------------
 Temperature   298.150 Kelvin.  Pressure   1.00000 Atm.
 Atom     1 has atomic number  8 and mass  15.99491

 Molecular mass:   237.04462 amu.
 Principal axes and moments of inertia in atomic units:
                           1         2         3
     Eigenvalues --   923.621089478.481399985.00096
           X            0.99926   0.03604   0.01323
           Y           -0.03435   0.68528   0.72747
           Z           -0.01715   0.72739  -0.68601
 This molecule is an asymmetric top.
 Rotational symmetry number  1.
 Warning -- assumption of classical behavior for rotation
           may cause significant error
 Rotational temperatures (Kelvin)      0.09378     0.00914     0.00867
 Rotational constants (GHZ):           1.95398     0.19040     0.18075
 Zero-point vibrational energy     478973.0 (Joules/Mol)
                                  114.47730 (Kcal/Mol)
 Warning -- explicit consideration of  19 degrees of freedom as
           vibrations may cause significant error
 Vibrational temperatures:     40.89    47.21   109.22   123.75   142.91
          (Kelvin)            206.49   333.42   344.73   373.87   407.31
                              457.17   521.05   550.73   599.60   613.36
                              686.13   701.53   751.33   797.41   904.52
                              959.09   987.43  1001.93  1013.60  1020.31
                             1061.65  1102.18  1119.52  1227.64  1329.95
                             1337.53  1410.28  1422.96  1435.36  1438.72
                             1450.22  1465.19  1511.44  1524.83  1542.04
                             1572.59  1599.73  1707.94  1730.27  1735.85
                             1779.85  1793.64  1846.14  1922.88  1966.90
                             1969.42  1986.88  2090.46  2128.52  2149.50
                             2175.24  2226.82  2279.15  2377.75  2387.56
                             4454.07  4592.93  4613.31  4619.00  4632.58
                             4646.71  4664.29  4687.09  4802.88

 Zero-point correction=                           0.182431 (Hartree/Particle)
 Thermal correction to Energy=                    0.196076
 Thermal correction to Enthalpy=                  0.197020
 Thermal correction to Gibbs Free Energy=         0.140129
 Sum of electronic and zero-point Energies=          -1115.881966
 Sum of electronic and thermal Energies=             -1115.868321
 Sum of electronic and thermal Enthalpies=           -1115.867377
 Sum of electronic and thermal Free Energies=        -1115.924268

                     E (Thermal)             CV                S
                      KCal/Mol        Cal/Mol-Kelvin    Cal/Mol-Kelvin
 Total                  123.040             51.939            119.738
 Electronic               0.000              0.000              0.000
 Translational            0.889              2.981             42.291
 Rotational               0.889              2.981             32.836
 Vibrational            121.262             45.977             44.611
 Vibration     1          0.593              1.984              5.937
 Vibration     2          0.594              1.983              5.652
 Vibration     3          0.599              1.965              3.994
 Vibration     4          0.601              1.959              3.749
 Vibration     5          0.604              1.950              3.467
 Vibration     6          0.616              1.910              2.756
 Vibration     7          0.653              1.792              1.865
 Vibration     8          0.657              1.780              1.806
 Vibration     9          0.668              1.746              1.663
 Vibration    10          0.682              1.705              1.515
 Vibration    11          0.704              1.640              1.322
 Vibration    12          0.736              1.550              1.113
 Vibration    13          0.752              1.507              1.028
 Vibration    14          0.780              1.434              0.903
 Vibration    15          0.788              1.413              0.871
 Vibration    16          0.833              1.301              0.719
 Vibration    17          0.844              1.278              0.690
 Vibration    18          0.877              1.201              0.605
 Vibration    19          0.910              1.130              0.535

 Optimization completed.
    -- Stationary point found.
 Normal termination of Gaussian 16 at Thu Sep 24 15:13:40 2020.

 ----------------------------------------------------------------------
 #p b3lyp/6-31G(d) scrf=(iefpcm,read,solvent=water) geom=allcheck guess
 =read
 ----------------------------------------------------------------------

 Structure from the checkpoint file:  "SM44_m1.a.4.pdb.xyz.mst.a.w.chk"
 -------------------
 SM44_m1.a.4.pdb.xyz
 -------------------
 Charge = -1 Multiplicity = 1

 SCF Done:  E(RB3LYP) =  -1116.06436424     A.U. after    7 cycles
 Normal termination of Gaussian 16 at Thu Sep 24 15:14:05 2020.

 -----------------------------
 #p B3LYP/6-31G* geom=allcheck
 -----------------------------

 Structure from the checkpoint file:  "SM44_m1.a.4.pdb.xyz.mst.a.w.chk"
 -------------------
 SM44_m1.a.4.pdb.xyz
 -------------------
 Charge = -1 Multiplicity = 1

 SCF Done:  E(RB3LYP) =  -1115.95990007     A.U. after   15 cycles
 Normal termination of Gaussian 16 at Thu Sep 24 15:14:30 2020.
 Gaussian 16:  ES64L-G16RevB.01 20-Dec-2017

 ----------------------------------------------------------------------
 #p mp2/aug-cc-pVDZ scf=(MaxCycle=2000,NoVarAcc,NoIncFock) maxdisk=120G
 B geom=allcheck
 ----------------------------------------------------------------------

 Structure from the checkpoint file:  "SM44_m1.a.4.pdb.xyz.mst.a.w.chk"
 -------------------
 SM44_m1.a.4.pdb.xyz
 -------------------
 Charge = -1 Multiplicity = 1

                         Standard orientation:
 ---------------------------------------------------------------------
 Center     Atomic      Atomic             Coordinates (Angstroms)
 Number     Number       Type             X           Y           Z
 ---------------------------------------------------------------------
      1          8           0       -4.635730   -1.098874   -0.293817
      2         16           0       -3.517212   -0.195477    0.084166
      3          7           0       -2.165475   -0.932367   -0.363915
      4          6           0       -0.951619   -0.320855   -0.137280
      5          7           0       -0.732116    0.986049    0.240288
      6          7           0        0.561342    1.214280    0.318538
      7          6           0        0.296225   -0.912782   -0.297286
      8          7           0        1.194739    0.072546   -0.011595
      9          6           0        2.614485    0.002244   -0.009739
     10          6           0        3.246469   -1.241387    0.076150
     11          6           0        4.639492   -1.302762    0.070755
     12          6           0        5.398824   -0.134107   -0.007600
     13          6           0        4.755632    1.103858   -0.086501
     14          6           0        3.364765    1.178817   -0.094705
     15          6           0       -3.718211    1.298769   -0.910416
     16          8           0       -3.537844    0.263389    1.503867
     17          1           0        0.590586   -1.901420   -0.600882
     18          1           0        2.657215   -2.146677    0.157618
     19          1           0        5.128317   -2.268310    0.136772
     20          1           0        6.481996   -0.186932   -0.007623
     21          1           0        5.336752    2.017388   -0.151479
     22          1           0        2.855500    2.130445   -0.167712
     23          1           0       -3.759130    1.016999   -1.963054
     24          1           0       -2.864928    1.949179   -0.720854
     25          1           0       -4.648134    1.786511   -0.613328
 ---------------------------------------------------------------------

 SCF Done:  E(RHF) =  -1111.08697712     A.U. after   17 cycles
 E2 =    -0.2492994074D+01 EUMP2 =    -0.11135799711979D+04

 The electronic state is 1-A.
 Alpha  occ. eigenvalues --  -92.03246 -20.36600 -20.36523 -15.55532 -15.52784
 Alpha  occ. eigenvalues --  -15.47229 -15.37764 -11.21865 -11.17874 -11.17724
 Alpha  occ. eigenvalues --  -11.17161 -11.17122 -11.16974 -11.16720 -11.14298
 Alpha  occ. eigenvalues --  -11.11701  -8.99981  -6.68527  -6.68463  -6.68405
 Alpha  occ. eigenvalues --   -1.31822  -1.25766  -1.13419  -1.12702  -1.06824
 Alpha  occ. eigenvalues --   -1.03873  -0.95489  -0.94367  -0.92038  -0.85980
 Alpha  occ. eigenvalues --   -0.78884  -0.76896  -0.71123  -0.69894  -0.66100
 Alpha  occ. eigenvalues --   -0.62024  -0.58802  -0.56042  -0.55304  -0.53440
 Alpha  occ. eigenvalues --   -0.52112  -0.51704  -0.50487  -0.48627  -0.47064
 Alpha  occ. eigenvalues --   -0.44868  -0.44194  -0.43690  -0.43150  -0.42602
 Alpha  occ. eigenvalues --   -0.39695  -0.35104  -0.32984  -0.32414  -0.30771
 Alpha  occ. eigenvalues --   -0.28800  -0.28691  -0.27173  -0.26950  -0.24368
 Alpha  occ. eigenvalues --   -0.23738  -0.15060
 Alpha virt. eigenvalues --    0.08723   0.09712   0.10785   0.12817   0.12981
 Alpha virt. eigenvalues --    0.13817   0.14433   0.15391   0.16740   0.17076
 Alpha virt. eigenvalues --    0.17463   0.17766   0.18726   0.19397   0.19914

 Mulliken charges:
               1
     1  O   -1.231866
     2  S    2.758322
     3  N   -1.329832
     4  C    0.109343
     5  N   -0.707957
     6  N   -0.256557
     7  C    1.390970
     8  N   -0.625762
     9  C    0.919984
    10  C    0.042845
    11  C    0.734892
    12  C    0.596839
    13  C    0.590488
    14  C    0.458208
    15  C    0.046479
    16  O   -1.278309
    17  H   -0.542982
    18  H   -0.652177
    19  H   -0.456501
    20  H   -0.462241
    21  H   -0.450349
    22  H   -0.536233
    23  H   -0.012854
    24  H   -0.036330
    25  H   -0.068419
 Sum of Mulliken charges =  -1.00000

 Dipole moment (field-independent basis, Debye):
    X=             14.4614    Y=              1.6341    Z=             -3.0785  Tot=             14.8755
 Quadrupole moment (field-independent basis, Debye-Ang):
   XX=           -161.7028   YY=           -106.6288   ZZ=           -114.8874
   XY=            -17.0770   XZ=              8.8069   YZ=             -5.3039

 Normal termination of Gaussian 16 at Thu Sep 24 15:39:38 2020.
