 Gaussian 16, Revision B.01,

 ----------------------------------------------------------------------
 #p b3lyp/6-31G(d) opt freq NoSymm scf=(MaxCycle=2000,NoVarAcc,NoIncFoc
 k) scrf=(iefpcm,read,solvent=water)
 ----------------------------------------------------------------------

 -------------------
 SM44_m0.n.5.pdb.xyz
 -------------------
 Symbolic Z-matrix:
 Charge =  0 Multiplicity = 1

 SCF Done:  E(RB3LYP) =  -1116.53799675     A.U. after   13 cycles
 SCF Done:  E(RB3LYP) =  -1116.53798287     A.U. after    9 cycles
 SCF Done:  E(RB3LYP) =  -1116.53795841     A.U. after    9 cycles
 SCF Done:  E(RB3LYP) =  -1116.53799459     A.U. after    9 cycles
 SCF Done:  E(RB3LYP) =  -1116.53791729     A.U. after   10 cycles
 SCF Done:  E(RB3LYP) =  -1116.53785940     A.U. after   10 cycles
 SCF Done:  E(RB3LYP) =  -1116.53788774     A.U. after    8 cycles
 SCF Done:  E(RB3LYP) =  -1116.53788369     A.U. after    9 cycles
 SCF Done:  E(RB3LYP) =  -1116.53788745     A.U. after    9 cycles
 SCF Done:  E(RB3LYP) =  -1116.53788732     A.U. after    7 cycles
 Optimization completed.
    -- Stationary point found.
 Normal termination of Gaussian 16 at Wed Sep 23 05:26:22 2020.

 --------------------------------------------------------------------
 #P Geom=AllCheck Guess=TCheck SCRF=Check GenChk RB3LYP/6-31G(d) Freq
 --------------------------------------------------------------------

 Structure from the checkpoint file:  "SM44_m0.n.5.pdb.xyz.mst.n.w.chk"
 -------------------
 SM44_m0.n.5.pdb.xyz
 -------------------
 Charge =  0 Multiplicity = 1

 SCF Done:  E(RB3LYP) =  -1116.53788732     A.U. after    1 cycles

  Exact polarizability: 275.316 -13.658 196.987  -9.252  -8.015  94.516
 Approx polarizability: 290.084 -18.224 248.249  -8.769 -14.493 117.672

                      1                      2                      3
                      A                      A                      A
 Frequencies --     26.9702                36.2339                50.4550
 Red. masses --      6.1424                 4.9435                 5.8548
 Frc consts  --      0.0026                 0.0038                 0.0088
 IR Inten    --     11.1812                 3.1997                 5.9454

                      4                      5                      6
                      A                      A                      A
 Frequencies --     64.7330               101.3902               150.2315
 Red. masses --      5.8216                 5.8264                 5.9262
 Frc consts  --      0.0144                 0.0353                 0.0788
 IR Inten    --      3.8382                 3.5642                 8.9683

                      7                      8                      9
                      A                      A                      A
 Frequencies --    229.1395               236.1650               240.1125
 Red. masses --      2.7982                 3.5209                 1.2846
 Frc consts  --      0.0866                 0.1157                 0.0436
 IR Inten    --      4.6695                 7.8084                 0.5417

                     10                     11                     12
                      A                      A                      A
 Frequencies --    286.3230               320.0090               339.0636
 Red. masses --      5.6720                 5.8299                 5.2332
 Frc consts  --      0.2740                 0.3517                 0.3545
 IR Inten    --      3.5632                 3.6607                 1.3153

                     13                     14                     15
                      A                      A                      A
 Frequencies --    381.4386               401.4413               419.3835
 Red. masses --      6.4626                 3.4368                 3.0412
 Frc consts  --      0.5540                 0.3263                 0.3151
 IR Inten    --     17.6176                37.8357                 0.2326

                     16                     17                     18
                      A                      A                      A
 Frequencies --    460.4055               483.2404               510.2748
 Red. masses --      6.9365                 5.2367                 6.7074
 Frc consts  --      0.8663                 0.7205                 1.0290
 IR Inten    --     29.9256                39.1664                85.7943

                     19                     20                     21
                      A                      A                      A
 Frequencies --    533.1346               588.8570               628.1266
 Red. masses --      3.4263                 4.3476                 6.3856
 Frc consts  --      0.5738                 0.8882                 1.4844
 IR Inten    --     26.1186               137.0993                 0.7165

                     22                     23                     24
                      A                      A                      A
 Frequencies --    677.0057               693.4572               705.2105
 Red. masses --      3.2651                 5.9667                 2.3789
 Frc consts  --      0.8817                 1.6905                 0.6971
 IR Inten    --     15.2609                19.5879                17.1838

                     25                     26                     27
                      A                      A                      A
 Frequencies --    709.8462               748.8154               778.8896
 Red. masses --      6.8608                 6.0684                 1.6075
 Frc consts  --      2.0368                 2.0048                 0.5746
 IR Inten    --      5.6044                86.7740                81.8319

                     28                     29                     30
                      A                      A                      A
 Frequencies --    798.3201               829.5037               854.2769
 Red. masses --      1.5041                 4.3526                 1.2535
 Frc consts  --      0.5648                 1.7646                 0.5390
 IR Inten    --     43.4933                71.4675                 0.2529

                     31                     32                     33
                      A                      A                      A
 Frequencies --    875.0073               937.5452               982.5396
 Red. masses --      2.2294                 1.3871                 1.3430
 Frc consts  --      1.0057                 0.7183                 0.7639
 IR Inten    --    153.3225                 7.1098                 0.2866

                     34                     35                     36
                      A                      A                      A
 Frequencies --   1007.0350              1011.8570              1013.8868
 Red. masses --      7.5528                 1.2668                 1.3585
 Frc consts  --      4.5128                 0.7642                 0.8228
 IR Inten    --     25.9302                 0.5121                16.1159

                     37                     38                     39
                      A                      A                      A
 Frequencies --   1019.7601              1020.6423              1051.9559
 Red. masses --      4.0173                 1.6239                 2.8824
 Frc consts  --      2.4614                 0.9967                 1.8793
 IR Inten    --      5.6468                50.0039                 1.5652

                     40                     41                     42
                      A                      A                      A
 Frequencies --   1064.5816              1068.1484              1113.0871
 Red. masses --      2.3800                 3.6328                 1.6878
 Frc consts  --      1.5892                 2.4421                 1.2320
 IR Inten    --    137.7029                 6.7806                41.0153

                     43                     44                     45
                      A                      A                      A
 Frequencies --   1121.0994              1188.3701              1202.9116
 Red. masses --      7.4768                 1.0995                 1.2113
 Frc consts  --      5.5367                 0.9148                 1.0327
 IR Inten    --    228.2446                 0.1279                 0.6360

                     46                     47                     48
                      A                      A                      A
 Frequencies --   1227.5410              1251.2889              1274.5668
 Red. masses --      4.0185                 2.0292                 6.0404
 Frc consts  --      3.5677                 1.8720                 5.7815
 IR Inten    --      2.0354                 9.0403               392.4658

                     49                     50                     51
                      A                      A                      A
 Frequencies --   1291.6894              1327.8226              1366.1078
 Red. masses --     10.7161                 2.9879                 6.4557
 Frc consts  --     10.5343                 3.1038                 7.0984
 IR Inten    --     25.2223                75.3006                 2.5182

                     52                     53                     54
                      A                      A                      A
 Frequencies --   1370.6658              1399.4288              1444.6772
 Red. masses --      1.4983                 1.1968                 2.5828
 Frc consts  --      1.6585                 1.3810                 3.1760
 IR Inten    --     11.7732                 8.9977               263.3167

                     55                     56                     57
                      A                      A                      A
 Frequencies --   1479.2697              1481.0562              1489.7618
 Red. masses --      1.2395                 1.0773                 1.6665
 Frc consts  --      1.5980                 1.3923                 2.1792
 IR Inten    --      5.1728                14.9653                20.4537

                     58                     59                     60
                      A                      A                      A
 Frequencies --   1516.0659              1551.4926              1607.9609
 Red. masses --      2.5894                 2.7165                 6.1793
 Frc consts  --      3.5066                 3.8526                 9.4133
 IR Inten    --     48.0501               102.0117                92.8413

                     61                     62                     63
                      A                      A                      A
 Frequencies --   1655.3855              1657.9028              3111.6319
 Red. masses --      6.3761                 5.6776                 1.0297
 Frc consts  --     10.2945                 9.1946                 5.8739
 IR Inten    --     18.4547                21.6673                 0.1248

                     64                     65                     66
                      A                      A                      A
 Frequencies --   3211.6910              3212.6115              3221.5572
 Red. masses --      1.1071                 1.0864                 1.0902
 Frc consts  --      6.7285                 6.6062                 6.6663
 IR Inten    --      0.1945                 0.1866                19.9206

                     67                     68                     69
                      A                      A                      A
 Frequencies --   3226.3008              3231.4672              3242.8100
 Red. masses --      1.1088                 1.0947                 1.0943
 Frc consts  --      6.7998                 6.7353                 6.7797
 IR Inten    --      0.0224                43.3313                 9.2010

                     70                     71                     72
                      A                      A                      A
 Frequencies --   3256.3248              3354.1385              3471.0528
 Red. masses --      1.0930                 1.1003                 1.0752
 Frc consts  --      6.8288                 7.2933                 7.6325
 IR Inten    --      2.2724                 9.3164               142.2909

 - Thermochemistry -
 -------------------
 Temperature   298.150 Kelvin.  Pressure   1.00000 Atm.
 Atom     1 has atomic number  8 and mass  15.99491

 Molecular mass:   238.05245 amu.
 Principal axes and moments of inertia in atomic units:
                           1         2         3
     Eigenvalues --  1224.051848637.129109381.81825
           X            0.99995   0.00274  -0.00974
           Y           -0.00272   0.99999   0.00251
           Z            0.00975  -0.00248   0.99995
 This molecule is an asymmetric top.
 Rotational symmetry number  1.
 Warning -- assumption of classical behavior for rotation
           may cause significant error
 Rotational temperatures (Kelvin)      0.07076     0.01003     0.00923
 Rotational constants (GHZ):           1.47440     0.20895     0.19237
 Zero-point vibrational energy     513755.1 (Joules/Mol)
                                  122.79042 (Kcal/Mol)
 Warning -- explicit consideration of  20 degrees of freedom as
           vibrations may cause significant error
 Vibrational temperatures:     38.80    52.13    72.59    93.14   145.88
          (Kelvin)            216.15   329.68   339.79   345.47   411.95
                              460.42   487.84   548.81   577.58   603.40
                              662.42   695.28   734.17   767.06   847.23
                              903.73   974.06   997.73  1014.64  1021.31
                             1077.38  1120.65  1148.60  1193.47  1229.11
                             1258.94  1348.92  1413.66  1448.90  1455.84
                             1458.76  1467.21  1468.48  1513.53  1531.70
                             1536.83  1601.48  1613.01  1709.80  1730.72
                             1766.16  1800.33  1833.82  1858.45  1910.44
                             1965.52  1972.08  2013.47  2078.57  2128.34
                             2130.91  2143.43  2181.28  2232.25  2313.50
                             2381.73  2385.35  4476.94  4620.91  4622.23
                             4635.10  4641.93  4649.36  4665.68  4685.13
                             4825.86  4994.07

 Zero-point correction=                           0.195679 (Hartree/Particle)
 Thermal correction to Energy=                    0.209613
 Thermal correction to Enthalpy=                  0.210557
 Thermal correction to Gibbs Free Energy=         0.152703
 Sum of electronic and zero-point Energies=          -1116.342208
 Sum of electronic and thermal Energies=             -1116.328274
 Sum of electronic and thermal Enthalpies=           -1116.327330
 Sum of electronic and thermal Free Energies=        -1116.385185

                     E (Thermal)             CV                S
                      KCal/Mol        Cal/Mol-Kelvin    Cal/Mol-Kelvin
 Total                  131.534             52.906            121.765
 Electronic               0.000              0.000              0.000
 Translational            0.889              2.981             42.303
 Rotational               0.889              2.981             32.961
 Vibrational            129.757             46.945             46.500
 Vibration     1          0.593              1.984              6.041
 Vibration     2          0.594              1.982              5.455
 Vibration     3          0.595              1.977              4.799
 Vibration     4          0.597              1.971              4.307
 Vibration     5          0.604              1.948              3.427
 Vibration     6          0.618              1.902              2.669
 Vibration     7          0.652              1.797              1.886
 Vibration     8          0.655              1.785              1.832
 Vibration     9          0.657              1.779              1.802
 Vibration    10          0.684              1.699              1.496
 Vibration    11          0.706              1.635              1.310
 Vibration    12          0.719              1.597              1.217
 Vibration    13          0.751              1.510              1.033
 Vibration    14          0.767              1.467              0.957
 Vibration    15          0.782              1.428              0.894
 Vibration    16          0.818              1.338              0.765
 Vibration    17          0.839              1.287              0.701
 Vibration    18          0.865              1.227              0.633
 Vibration    19          0.888              1.177              0.580
 Vibration    20          0.946              1.056              0.469

                           ! Non-Optimized Parameters !
 Normal termination of Gaussian 16 at Wed Sep 23 05:32:05 2020.

 ----------------------------------------------------------------------
 #p b3lyp/6-31G(d) scrf=(iefpcm,read,solvent=water) geom=allcheck guess
 =read
 ----------------------------------------------------------------------

 Structure from the checkpoint file:  "SM44_m0.n.5.pdb.xyz.mst.n.w.chk"
 -------------------
 SM44_m0.n.5.pdb.xyz
 -------------------
 Charge =  0 Multiplicity = 1

 SCF Done:  E(RB3LYP) =  -1116.53789577     A.U. after    5 cycles
 Normal termination of Gaussian 16 at Wed Sep 23 05:32:29 2020.

 -----------------------------
 #p B3LYP/6-31G* geom=allcheck
 -----------------------------

 Structure from the checkpoint file:  "SM44_m0.n.5.pdb.xyz.mst.n.w.chk"
 -------------------
 SM44_m0.n.5.pdb.xyz
 -------------------
 Charge =  0 Multiplicity = 1

 SCF Done:  E(RB3LYP) =  -1116.51225196     A.U. after   15 cycles
 Normal termination of Gaussian 16 at Wed Sep 23 05:32:57 2020.
 Gaussian 16:  ES64L-G16RevB.01 20-Dec-2017

 ----------------------------------------------------------------------
 #p mp2/aug-cc-pVDZ scf=(MaxCycle=2000,NoVarAcc,NoIncFock) maxdisk=120G
 B geom=allcheck
 ----------------------------------------------------------------------

 Structure from the checkpoint file:  "SM44_m0.n.5.pdb.xyz.mst.n.w.chk"
 -------------------
 SM44_m0.n.5.pdb.xyz
 -------------------
 Charge =  0 Multiplicity = 1

                         Standard orientation:
 ---------------------------------------------------------------------
 Center     Atomic      Atomic             Coordinates (Angstroms)
 Number     Number       Type             X           Y           Z
 ---------------------------------------------------------------------
      1          8           0        2.493246    1.599125    0.442835
      2         16           0        3.277308    0.374077    0.233187
      3          7           0        2.320746   -0.644656   -0.753258
      4          6           0        0.961234   -0.780716   -0.413557
      5          7           0        0.450211   -1.944258    0.073808
      6          7           0       -0.839937   -1.799989    0.238940
      7          6           0       -0.060954    0.133608   -0.551561
      8          7           0       -1.160332   -0.537274   -0.123825
      9          6           0       -2.505650   -0.073004   -0.043631
     10          6           0       -2.760298    1.299834   -0.011834
     11          6           0       -4.079497    1.745687    0.055296
     12          6           0       -5.132515    0.830309    0.102781
     13          6           0       -4.862187   -0.539599    0.077975
     14          6           0       -3.549735   -1.000931   -0.001358
     15          6           0        4.641526    0.693667   -0.874882
     16          8           0        3.785342   -0.337678    1.418266
     17          1           0        2.778509   -1.556050   -0.851180
     18          1           0       -0.086264    1.146078   -0.911112
     19          1           0       -1.941539    2.008566   -0.029193
     20          1           0       -4.279558    2.811361    0.078422
     21          1           0       -6.156871    1.181631    0.158610
     22          1           0       -5.675591   -1.255797    0.111770
     23          1           0       -3.326459   -2.059211   -0.033937
     24          1           0        4.259684    1.201119   -1.758879
     25          1           0        5.113751   -0.253082   -1.137386
     26          1           0        5.342345    1.328694   -0.331936
 ---------------------------------------------------------------------

 SCF Done:  E(RHF) =  -1111.63877647     A.U. after   17 cycles
 E2 =    -0.2477264888D+01 EUMP2 =    -0.11141160413614D+04

 The electronic state is 1-A.
 Alpha  occ. eigenvalues --  -92.23286 -20.56731 -20.56406 -15.68691 -15.65802
 Alpha  occ. eigenvalues --  -15.63467 -15.62021 -11.31724 -11.31321 -11.30068
 Alpha  occ. eigenvalues --  -11.30054 -11.26504 -11.26286 -11.26136 -11.25917
 Alpha  occ. eigenvalues --  -11.25687  -9.20170  -6.88677  -6.88645  -6.88542
 Alpha  occ. eigenvalues --   -1.46448  -1.45518  -1.34104  -1.27598  -1.23615
 Alpha  occ. eigenvalues --   -1.16340  -1.09370  -1.05445  -1.04065  -1.03268
 Alpha  occ. eigenvalues --   -0.90530  -0.88634  -0.85307  -0.82038  -0.81665
 Alpha  occ. eigenvalues --   -0.76742  -0.72641  -0.70944  -0.68623  -0.68188
 Alpha  occ. eigenvalues --   -0.66704  -0.66208  -0.64981  -0.63495  -0.61859
 Alpha  occ. eigenvalues --   -0.61335  -0.60900  -0.60861  -0.54837  -0.53723
 Alpha  occ. eigenvalues --   -0.53291  -0.52242  -0.51566  -0.50650  -0.49111
 Alpha  occ. eigenvalues --   -0.47229  -0.46842  -0.45226  -0.43706  -0.36080
 Alpha  occ. eigenvalues --   -0.35586  -0.32796
 Alpha virt. eigenvalues --    0.02740   0.03151   0.03931   0.04474   0.04740
 Alpha virt. eigenvalues --    0.05298   0.06255   0.06594   0.06660   0.07476
 Alpha virt. eigenvalues --    0.08355   0.09188   0.09961   0.10474   0.11167

 Mulliken charges:
               1
     1  O   -1.194223
     2  S    2.826233
     3  N   -0.960082
     4  C    0.479569
     5  N   -0.583070
     6  N   -0.433137
     7  C    1.186484
     8  N   -0.669716
     9  C    0.928548
    10  C    0.103431
    11  C    0.681630
    12  C    0.589472
    13  C    0.609250
    14  C    0.427493
    15  C    0.078541
    16  O   -1.160996
    17  H    0.003649
    18  H   -0.483274
    19  H   -0.647799
    20  H   -0.441087
    21  H   -0.444523
    22  H   -0.432781
    23  H   -0.533929
    24  H    0.031317
    25  H   -0.014746
    26  H    0.053743
 Sum of Mulliken charges =  -0.00000

 Dipole moment (field-independent basis, Debye):
    X=             -0.5226    Y=              2.1063    Z=             -4.9940  Tot=              5.4452
 Quadrupole moment (field-independent basis, Debye-Ang):
   XX=            -71.1482   YY=           -103.3500   ZZ=           -108.5011
   XY=             -1.7949   XZ=            -17.1234   YZ=              0.9460

 Normal termination of Gaussian 16 at Wed Sep 23 05:50:06 2020.
