 Gaussian 16, Revision B.01,

 ----------------------------------------------------------------------
 #p b3lyp/6-31G(d) opt freq NoSymm scf=(MaxCycle=2000,NoVarAcc,NoIncFoc
 k) scrf=(iefpcm,read,solvent=water)
 ----------------------------------------------------------------------

 -------------------
 SM44_m1.a.3.pdb.xyz
 -------------------
 Symbolic Z-matrix:
 Charge = -1 Multiplicity = 1

 SCF Done:  E(RB3LYP) =  -1116.06468564     A.U. after   13 cycles
 SCF Done:  E(RB3LYP) =  -1116.06455932     A.U. after   10 cycles
 SCF Done:  E(RB3LYP) =  -1116.06452149     A.U. after   10 cycles
 SCF Done:  E(RB3LYP) =  -1116.06468311     A.U. after   10 cycles
 SCF Done:  E(RB3LYP) =  -1116.06468699     A.U. after    8 cycles
 SCF Done:  E(RB3LYP) =  -1116.06439186     A.U. after   11 cycles
 SCF Done:  E(RB3LYP) =  -1116.06450981     A.U. after   10 cycles
 SCF Done:  E(RB3LYP) =  -1116.06468293     A.U. after   11 cycles
 SCF Done:  E(RB3LYP) =  -1116.06468692     A.U. after    9 cycles
 SCF Done:  E(RB3LYP) =  -1116.06440186     A.U. after   11 cycles
 SCF Done:  E(RB3LYP) =  -1116.06468693     A.U. after    9 cycles
 SCF Done:  E(RB3LYP) =  -1116.06445551     A.U. after   11 cycles
 SCF Done:  E(RB3LYP) =  -1116.06447338     A.U. after    8 cycles
 SCF Done:  E(RB3LYP) =  -1116.06468179     A.U. after   11 cycles
 SCF Done:  E(RB3LYP) =  -1116.06468691     A.U. after    9 cycles
 SCF Done:  E(RB3LYP) =  -1116.06446524     A.U. after   11 cycles
 Optimization completed.
    -- Stationary point found.
 Normal termination of Gaussian 16 at Thu Sep 24 14:52:56 2020.

 --------------------------------------------------------------------
 #P Geom=AllCheck Guess=TCheck SCRF=Check GenChk RB3LYP/6-31G(d) Freq
 --------------------------------------------------------------------

 Structure from the checkpoint file:  "SM44_m1.a.3.pdb.xyz.mst.a.w.chk"
 -------------------
 SM44_m1.a.3.pdb.xyz
 -------------------
 Charge = -1 Multiplicity = 1

 SCF Done:  E(RB3LYP) =  -1116.06446524     A.U. after    1 cycles

  Exact polarizability: 307.393  -1.934 139.846  -5.464 -49.471 150.382
 Approx polarizability: 318.951   0.109 183.302  -4.780 -64.924 181.000

                      1                      2                      3
                      A                      A                      A
 Frequencies --     24.6106                40.0133                77.2646
 Red. masses --      6.0318                 4.7499                 6.0599
 Frc consts  --      0.0022                 0.0045                 0.0213
 IR Inten    --      6.1213                 2.2818                 1.3436

                      4                      5                      6
                      A                      A                      A
 Frequencies --     88.0966               100.2843               142.5690
 Red. masses --      5.3032                 7.3492                 5.1649
 Frc consts  --      0.0242                 0.0435                 0.0619
 IR Inten    --     13.3269                 3.4711                 0.9944

                      7                      8                      9
                      A                      A                      A
 Frequencies --    232.5133               235.6958               259.0506
 Red. masses --      5.6059                 1.1337                 5.1631
 Frc consts  --      0.1786                 0.0371                 0.2041
 IR Inten    --      7.9381                 0.9535                 3.9918

                     10                     11                     12
                      A                      A                      A
 Frequencies --    282.4860               320.4615               362.4975
 Red. masses --      4.2884                 4.4905                 6.3736
 Frc consts  --      0.2016                 0.2717                 0.4934
 IR Inten    --      2.0504                 8.5500                12.7640

                     13                     14                     15
                      A                      A                      A
 Frequencies --    380.4557               417.9813               425.7262
 Red. masses --      6.8090                 3.3381                 6.9714
 Frc consts  --      0.5807                 0.3436                 0.7444
 IR Inten    --      7.0908                 2.1186                 6.9267

                     16                     17                     18
                      A                      A                      A
 Frequencies --    476.5693               488.2527               522.1045
 Red. masses --      7.4473                 8.0185                 4.0319
 Frc consts  --      0.9966                 1.1262                 0.6475
 IR Inten    --     37.0076                97.0976                25.6461

                     19                     20                     21
                      A                      A                      A
 Frequencies --    555.5219               628.4379               668.1799
 Red. masses --      4.9850                 6.4321                 3.9257
 Frc consts  --      0.9064                 1.4967                 1.0326
 IR Inten    --     40.4028                 0.0105                 0.5917

                     22                     23                     24
                      A                      A                      A
 Frequencies --    687.4390               697.1209               705.8548
 Red. masses --      6.5025                 2.2395                 2.3581
 Frc consts  --      1.8105                 0.6412                 0.6922
 IR Inten    --     26.0062                 8.2420                21.5628

                     25                     26                     27
                      A                      A                      A
 Frequencies --    710.4671               739.4034               767.5270
 Red. masses --      5.9237                 2.9002                 8.6987
 Frc consts  --      1.7617                 0.9342                 3.0192
 IR Inten    --     22.9510               101.6851               170.6045

                     28                     29                     30
                      A                      A                      A
 Frequencies --    778.9994               854.7890               924.9782
 Red. masses --      1.6563                 1.2498                 6.8680
 Frc consts  --      0.5922                 0.5380                 3.4622
 IR Inten    --     61.7960                 0.3090               130.7889

                     31                     32                     33
                      A                      A                      A
 Frequencies --    931.5281               981.0729               989.2964
 Red. masses --      1.3998                 1.3397                 1.5215
 Frc consts  --      0.7157                 0.7597                 0.8774
 IR Inten    --      7.2688                 0.1783                78.3448

                     34                     35                     36
                      A                      A                      A
 Frequencies --    998.4886              1000.4057              1008.6903
 Red. masses --      4.0712                 1.6923                 1.2595
 Frc consts  --      2.3915                 0.9979                 0.7550
 IR Inten    --     52.3427                11.9803                 0.3247

                     37                     38                     39
                      A                      A                      A
 Frequencies --   1018.2990              1050.1312              1059.5958
 Red. masses --      5.9954                 2.7194                 3.4520
 Frc consts  --      3.6628                 1.7669                 2.2835
 IR Inten    --      1.4218                 5.4411                58.6187

                     40                     41                     42
                      A                      A                      A
 Frequencies --   1073.7343              1092.9727              1109.1122
 Red. masses --      2.7671                 4.9339                 1.6752
 Frc consts  --      1.8796                 3.4727                 1.2141
 IR Inten    --    211.4514               659.8338                55.7348

                     43                     44                     45
                      A                      A                      A
 Frequencies --   1187.1889              1200.4245              1205.0750
 Red. masses --      1.1062                 1.2138                 9.5838
 Frc consts  --      0.9186                 1.0305                 8.2000
 IR Inten    --      0.1643                17.4261               439.1991

                     46                     47                     48
                      A                      A                      A
 Frequencies --   1235.7222              1247.8698              1282.3783
 Red. masses --      4.9766                 4.9179                 2.8416
 Frc consts  --      4.4774                 4.5120                 2.7532
 IR Inten    --     62.4465                14.7717               241.1667

                     49                     50                     51
                      A                      A                      A
 Frequencies --   1335.3498              1365.5308              1367.8729
 Red. masses --      3.2933                 2.7740                 1.3602
 Frc consts  --      3.4600                 3.0476                 1.4995
 IR Inten    --    159.1246                 0.0794                76.6535

                     52                     53                     54
                      A                      A                      A
 Frequencies --   1380.0131              1455.7386              1478.9853
 Red. masses --      2.6264                 4.4032                 1.0542
 Frc consts  --      2.9470                 5.4977                 1.3586
 IR Inten    --    304.0878               198.7649                 2.4219

                     55                     56                     57
                      A                      A                      A
 Frequencies --   1493.5246              1511.4857              1546.7435
 Red. masses --      1.0527                 2.4996                 2.7346
 Frc consts  --      1.3835                 3.3646                 3.8546
 IR Inten    --      4.7802                22.0685               387.3881

                     58                     59                     60
                      A                      A                      A
 Frequencies --   1583.5575              1652.0334              1659.1434
 Red. masses --      6.4469                 6.3592                 5.7123
 Frc consts  --      9.5251                10.2256                 9.2646
 IR Inten    --    386.8470                 7.5000                41.3174

                     61                     62                     63
                      A                      A                      A
 Frequencies --   3096.7559              3193.8603              3207.7535
 Red. masses --      1.0300                 1.1070                 1.1067
 Frc consts  --      5.8197                 6.6530                 6.7094
 IR Inten    --     10.3235                 8.9969                 1.1529

                     64                     65                     66
                      A                      A                      A
 Frequencies --   3209.3301              3217.7191              3229.0128
 Red. masses --      1.0861                 1.0902                 1.0949
 Frc consts  --      6.5911                 6.6503                 6.7260
 IR Inten    --      0.2869                23.3074                48.0843

                     67                     68                     69
                      A                      A                      A
 Frequencies --   3242.3697              3253.6305              3327.5474
 Red. masses --      1.0939                 1.0929                 1.0983
 Frc consts  --      6.7757                 6.8168                 7.1652
 IR Inten    --     10.4248                 2.7496                 5.9101

 - Thermochemistry -
 -------------------
 Temperature   298.150 Kelvin.  Pressure   1.00000 Atm.
 Atom     1 has atomic number  8 and mass  15.99491

 Molecular mass:   237.04462 amu.
 Principal axes and moments of inertia in atomic units:
                           1         2         3
     Eigenvalues --   922.487439470.571049966.77542
           X            0.99917  -0.03675   0.01750
           Y           -0.03745  -0.66189   0.74867
           Z            0.01593   0.74870   0.66271
 This molecule is an asymmetric top.
 Rotational symmetry number  1.
 Warning -- assumption of classical behavior for rotation
           may cause significant error
 Rotational temperatures (Kelvin)      0.09389     0.00915     0.00869
 Rotational constants (GHZ):           1.95639     0.19056     0.18108
 Zero-point vibrational energy     478956.6 (Joules/Mol)
                                  114.47338 (Kcal/Mol)
 Warning -- explicit consideration of  19 degrees of freedom as
           vibrations may cause significant error
 Vibrational temperatures:     35.41    57.57   111.17   126.75   144.29
          (Kelvin)            205.12   334.53   339.11   372.72   406.43
                              461.07   521.55   547.39   601.38   612.53
                              685.68   702.49   751.19   799.27   904.18
                              961.36   989.07  1003.00  1015.57  1022.20
                             1063.84  1104.30  1120.81  1229.85  1330.84
                             1340.26  1411.55  1423.38  1436.60  1439.36
                             1451.28  1465.11  1510.90  1524.52  1544.86
                             1572.54  1595.77  1708.10  1727.14  1733.83
                             1777.93  1795.41  1845.06  1921.27  1964.69
                             1968.06  1985.53  2094.48  2127.93  2148.85
                             2174.69  2225.42  2278.39  2376.91  2387.14
                             4455.54  4595.25  4615.24  4617.51  4629.58
                             4645.83  4665.05  4681.25  4787.60

 Zero-point correction=                           0.182425 (Hartree/Particle)
 Thermal correction to Energy=                    0.196055
 Thermal correction to Enthalpy=                  0.196999
 Thermal correction to Gibbs Free Energy=         0.140199
 Sum of electronic and zero-point Energies=          -1115.882040
 Sum of electronic and thermal Energies=             -1115.868410
 Sum of electronic and thermal Enthalpies=           -1115.867466
 Sum of electronic and thermal Free Energies=        -1115.924266

                     E (Thermal)             CV                S
                      KCal/Mol        Cal/Mol-Kelvin    Cal/Mol-Kelvin
 Total                  123.026             51.915            119.546
 Electronic               0.000              0.000              0.000
 Translational            0.889              2.981             42.291
 Rotational               0.889              2.981             32.832
 Vibrational            121.249             45.954             44.424
 Vibration     1          0.593              1.985              6.222
 Vibration     2          0.594              1.981              5.258
 Vibration     3          0.599              1.964              3.959
 Vibration     4          0.601              1.958              3.702
 Vibration     5          0.604              1.949              3.449
 Vibration     6          0.616              1.911              2.769
 Vibration     7          0.653              1.791              1.859
 Vibration     8          0.655              1.786              1.835
 Vibration     9          0.668              1.747              1.668
 Vibration    10          0.682              1.706              1.519
 Vibration    11          0.706              1.634              1.308
 Vibration    12          0.736              1.549              1.111
 Vibration    13          0.750              1.512              1.037
 Vibration    14          0.781              1.431              0.899
 Vibration    15          0.788              1.414              0.873
 Vibration    16          0.833              1.302              0.719
 Vibration    17          0.844              1.276              0.688
 Vibration    18          0.877              1.201              0.605
 Vibration    19          0.911              1.128              0.533

 Optimization completed.
    -- Stationary point found.
 Normal termination of Gaussian 16 at Thu Sep 24 14:58:13 2020.

 ----------------------------------------------------------------------
 #p b3lyp/6-31G(d) scrf=(iefpcm,read,solvent=water) geom=allcheck guess
 =read
 ----------------------------------------------------------------------

 Structure from the checkpoint file:  "SM44_m1.a.3.pdb.xyz.mst.a.w.chk"
 -------------------
 SM44_m1.a.3.pdb.xyz
 -------------------
 Charge = -1 Multiplicity = 1

 SCF Done:  E(RB3LYP) =  -1116.06442609     A.U. after    7 cycles
 Normal termination of Gaussian 16 at Thu Sep 24 14:58:38 2020.

 -----------------------------
 #p B3LYP/6-31G* geom=allcheck
 -----------------------------

 Structure from the checkpoint file:  "SM44_m1.a.3.pdb.xyz.mst.a.w.chk"
 -------------------
 SM44_m1.a.3.pdb.xyz
 -------------------
 Charge = -1 Multiplicity = 1

 SCF Done:  E(RB3LYP) =  -1115.95965713     A.U. after   15 cycles
 Normal termination of Gaussian 16 at Thu Sep 24 14:59:05 2020.
 Gaussian 16:  ES64L-G16RevB.01 20-Dec-2017

 ----------------------------------------------------------------------
 #p mp2/aug-cc-pVDZ scf=(MaxCycle=2000,NoVarAcc,NoIncFock) maxdisk=120G
 B geom=allcheck
 ----------------------------------------------------------------------

 Structure from the checkpoint file:  "SM44_m1.a.3.pdb.xyz.mst.a.w.chk"
 -------------------
 SM44_m1.a.3.pdb.xyz
 -------------------
 Charge = -1 Multiplicity = 1

                         Standard orientation:
 ---------------------------------------------------------------------
 Center     Atomic      Atomic             Coordinates (Angstroms)
 Number     Number       Type             X           Y           Z
 ---------------------------------------------------------------------
      1          8           0       -4.639156   -1.075475   -0.344836
      2         16           0       -3.515945   -0.194999    0.072977
      3          7           0       -2.166829   -0.927631   -0.388125
      4          6           0       -0.952546   -0.324332   -0.140406
      5          7           0       -0.734334    0.966763    0.288393
      6          7           0        0.559122    1.194098    0.372588
      7          6           0        0.296805   -0.907251   -0.325720
      8          7           0        1.192686    0.067799   -0.003695
      9          6           0        2.611491    0.001413   -0.008145
     10          6           0        3.247322   -1.238114    0.102546
     11          6           0        4.640311   -1.296631    0.090662
     12          6           0        5.395962   -0.127923   -0.017361
     13          6           0        4.749439    1.106000   -0.120201
     14          6           0        3.358084    1.178555   -0.123826
     15          6           0       -3.692897    1.333166   -0.870119
     16          8           0       -3.546046    0.213820    1.507813
     17          1           0        0.591245   -1.882305   -0.673837
     18          1           0        2.660919   -2.142414    0.210084
     19          1           0        5.132283   -2.259736    0.176107
     20          1           0        6.479283   -0.177571   -0.021806
     21          1           0        5.328756    2.018578   -0.208629
     22          1           0        2.846624    2.127733   -0.217518
     23          1           0       -3.731794    1.087302   -1.931783
     24          1           0       -2.831140    1.963440   -0.652753
     25          1           0       -4.617780    1.821698   -0.560023
 ---------------------------------------------------------------------

 SCF Done:  E(RHF) =  -1111.08689280     A.U. after   17 cycles
 E2 =    -0.2493012675D+01 EUMP2 =    -0.11135799054789D+04

 The electronic state is 1-A.
 Alpha  occ. eigenvalues --  -92.03195 -20.36550 -20.36482 -15.55515 -15.52743
 Alpha  occ. eigenvalues --  -15.47162 -15.37741 -11.21848 -11.17902 -11.17750
 Alpha  occ. eigenvalues --  -11.17194 -11.17176 -11.16951 -11.16805 -11.14299
 Alpha  occ. eigenvalues --  -11.11657  -8.99937  -6.68482  -6.68418  -6.68361
 Alpha  occ. eigenvalues --   -1.31844  -1.25722  -1.13361  -1.12708  -1.06850
 Alpha  occ. eigenvalues --   -1.03862  -0.95500  -0.94399  -0.92043  -0.85995
 Alpha  occ. eigenvalues --   -0.78906  -0.76898  -0.71139  -0.69892  -0.66064
 Alpha  occ. eigenvalues --   -0.62021  -0.58842  -0.56173  -0.55312  -0.53354
 Alpha  occ. eigenvalues --   -0.52123  -0.51629  -0.50488  -0.48595  -0.47046
 Alpha  occ. eigenvalues --   -0.44884  -0.44193  -0.43703  -0.43158  -0.42580
 Alpha  occ. eigenvalues --   -0.39691  -0.35033  -0.32975  -0.32338  -0.30736
 Alpha  occ. eigenvalues --   -0.28774  -0.28642  -0.27165  -0.26939  -0.24358
 Alpha  occ. eigenvalues --   -0.23830  -0.15043
 Alpha virt. eigenvalues --    0.08720   0.09705   0.10772   0.12813   0.12952
 Alpha virt. eigenvalues --    0.13833   0.14304   0.15356   0.16788   0.17108
 Alpha virt. eigenvalues --    0.17428   0.17756   0.18692   0.19410   0.19931

 Mulliken charges:
               1
     1  O   -1.232606
     2  S    2.753867
     3  N   -1.328720
     4  C    0.099327
     5  N   -0.702601
     6  N   -0.280270
     7  C    1.389116
     8  N   -0.601415
     9  C    0.906062
    10  C    0.100039
    11  C    0.711851
    12  C    0.585000
    13  C    0.570636
    14  C    0.458851
    15  C    0.047946
    16  O   -1.279257
    17  H   -0.538111
    18  H   -0.650942
    19  H   -0.452244
    20  H   -0.461680
    21  H   -0.448724
    22  H   -0.528503
    23  H   -0.012649
    24  H   -0.037060
    25  H   -0.067914
 Sum of Mulliken charges =  -1.00000

 Dipole moment (field-independent basis, Debye):
    X=             14.5806    Y=              1.7359    Z=             -3.0454  Tot=             14.9961
 Quadrupole moment (field-independent basis, Debye-Ang):
   XX=           -161.9294   YY=           -106.2549   ZZ=           -115.1534
   XY=            -17.3194   XZ=              8.0833   YZ=             -5.5964

 Normal termination of Gaussian 16 at Thu Sep 24 15:13:27 2020.
