 Gaussian 16, Revision B.01,

 ----------------------------------------------------------------------
 #p b3lyp/6-31G(d) opt freq NoSymm scf=(MaxCycle=2000,NoVarAcc,NoIncFoc
 k) scrf=(iefpcm,read,solvent=water)
 ----------------------------------------------------------------------

 -------------------
 SM44_m0.n.7.pdb.xyz
 -------------------
 Symbolic Z-matrix:
 Charge =  0 Multiplicity = 1

 SCF Done:  E(RB3LYP) =  -1116.53894556     A.U. after   13 cycles
 SCF Done:  E(RB3LYP) =  -1116.53897973     A.U. after    9 cycles
 SCF Done:  E(RB3LYP) =  -1116.53897826     A.U. after    8 cycles
 SCF Done:  E(RB3LYP) =  -1116.53898377     A.U. after    8 cycles
 SCF Done:  E(RB3LYP) =  -1116.53898652     A.U. after    8 cycles
 SCF Done:  E(RB3LYP) =  -1116.53898843     A.U. after    9 cycles
 SCF Done:  E(RB3LYP) =  -1116.53898838     A.U. after    8 cycles
 SCF Done:  E(RB3LYP) =  -1116.53898785     A.U. after    7 cycles
 SCF Done:  E(RB3LYP) =  -1116.53898634     A.U. after    7 cycles
 SCF Done:  E(RB3LYP) =  -1116.53898631     A.U. after    7 cycles
 Optimization completed.
    -- Stationary point found.
 Normal termination of Gaussian 16 at Wed Sep 23 05:24:59 2020.

 --------------------------------------------------------------------
 #P Geom=AllCheck Guess=TCheck SCRF=Check GenChk RB3LYP/6-31G(d) Freq
 --------------------------------------------------------------------

 Structure from the checkpoint file:  "SM44_m0.n.7.pdb.xyz.mst.n.w.chk"
 -------------------
 SM44_m0.n.7.pdb.xyz
 -------------------
 Charge =  0 Multiplicity = 1

 SCF Done:  E(RB3LYP) =  -1116.53898631     A.U. after    1 cycles

  Exact polarizability: 276.658   5.416 190.299 -19.274  11.795  99.183
 Approx polarizability: 292.459   1.440 238.834 -25.036  15.444 122.976

                      1                      2                      3
                      A                      A                      A
 Frequencies --     24.3040                35.8579                42.0999
 Red. masses --      5.6021                 5.4011                 4.7253
 Frc consts  --      0.0019                 0.0041                 0.0049
 IR Inten    --      5.3804                 2.4114                11.6323

                      4                      5                      6
                      A                      A                      A
 Frequencies --     77.1972               100.1646               124.1034
 Red. masses --      6.0467                 5.9503                 5.0862
 Frc consts  --      0.0212                 0.0352                 0.0462
 IR Inten    --     14.4944                 3.9412                 4.1109

                      7                      8                      9
                      A                      A                      A
 Frequencies --    227.4294               230.5324               256.5006
 Red. masses --      4.6367                 1.0911                 5.9517
 Frc consts  --      0.1413                 0.0342                 0.2307
 IR Inten    --      1.7040                 0.2144                 2.2087

                     10                     11                     12
                      A                      A                      A
 Frequencies --    269.6947               312.7256               341.6429
 Red. masses --      5.4105                 5.1269                 4.6065
 Frc consts  --      0.2319                 0.2954                 0.3168
 IR Inten    --      4.4380                 1.3810                 2.3264

                     13                     14                     15
                      A                      A                      A
 Frequencies --    393.1850               394.9189               419.1465
 Red. masses --      2.4352                 7.2314                 3.0227
 Frc consts  --      0.2218                 0.6645                 0.3129
 IR Inten    --     38.9211                12.2797                 0.7176

                     16                     17                     18
                      A                      A                      A
 Frequencies --    443.4330               467.5947               494.6589
 Red. masses --      3.0571                 4.7314                 6.5447
 Frc consts  --      0.3542                 0.6095                 0.9435
 IR Inten    --     78.5970                40.6570                86.8527

                     19                     20                     21
                      A                      A                      A
 Frequencies --    523.7285               545.9680               628.4545
 Red. masses --      4.2230                 4.5873                 6.4130
 Frc consts  --      0.6825                 0.8056                 1.4923
 IR Inten    --    135.6018                34.4260                 0.3126

                     22                     23                     24
                      A                      A                      A
 Frequencies --    668.2090               696.3725               704.9207
 Red. masses --      3.6647                 6.0491                 2.4310
 Frc consts  --      0.9641                 1.7283                 0.7117
 IR Inten    --      2.9754                24.5477                32.1153

                     25                     26                     27
                      A                      A                      A
 Frequencies --    710.7364               729.0643               778.4785
 Red. masses --      6.0094                 4.5883                 1.5956
 Frc consts  --      1.7885                 1.4369                 0.5697
 IR Inten    --      5.6434                34.4330                97.8289

                     28                     29                     30
                      A                      A                      A
 Frequencies --    786.5081               814.9884               853.6348
 Red. masses --      1.8001                 3.7868                 1.2546
 Frc consts  --      0.6561                 1.4819                 0.5386
 IR Inten    --     18.5040                 2.6486                 3.5488

                     31                     32                     33
                      A                      A                      A
 Frequencies --    867.7980               937.5031               981.8307
 Red. masses --      4.2072                 1.3892                 1.3458
 Frc consts  --      1.8667                 0.7194                 0.7643
 IR Inten    --    284.6575                 6.2279                 0.2585

                     34                     35                     36
                      A                      A                      A
 Frequencies --   1007.4374              1011.5134              1017.0451
 Red. masses --      7.6777                 1.2705                 1.3533
 Frc consts  --      4.5911                 0.7659                 0.8247
 IR Inten    --     29.4435                 0.5094                11.9113

                     37                     38                     39
                      A                      A                      A
 Frequencies --   1018.5174              1020.7339              1050.6953
 Red. masses --      1.3989                 5.9149                 2.8113
 Frc consts  --      0.8550                 3.6310                 1.8286
 IR Inten    --     45.1209                 3.0677                 1.2194

                     40                     41                     42
                      A                      A                      A
 Frequencies --   1067.5994              1070.6545              1109.5989
 Red. masses --      4.2153                 2.2386                 1.6361
 Frc consts  --      2.8307                 1.5119                 1.1869
 IR Inten    --     39.5845               106.8157                39.3117

                     43                     44                     45
                      A                      A                      A
 Frequencies --   1113.3539              1187.4694              1199.4934
 Red. masses --      7.7128                 1.0983                 1.1800
 Frc consts  --      5.6329                 0.9124                 1.0003
 IR Inten    --    287.1321                 0.0464                 0.5375

                     46                     47                     48
                      A                      A                      A
 Frequencies --   1232.7942              1235.9154              1285.2717
 Red. masses --      3.9653                 2.0011                 7.3296
 Frc consts  --      3.5507                 1.8009                 7.1338
 IR Inten    --      3.7541                16.3190               262.1129

                     49                     50                     51
                      A                      A                      A
 Frequencies --   1298.9004              1339.7528              1367.0591
 Red. masses --      9.3886                 2.3561                 2.5750
 Frc consts  --      9.3326                 2.4917                 2.8353
 IR Inten    --    219.6752                89.0114                 1.7706

                     52                     53                     54
                      A                      A                      A
 Frequencies --   1377.0662              1390.6655              1420.2359
 Red. masses --      2.3176                 1.2193                 2.8339
 Frc consts  --      2.5895                 1.3894                 3.3678
 IR Inten    --    100.4399                11.9534                67.2945

                     55                     56                     57
                      A                      A                      A
 Frequencies --   1473.8709              1483.8903              1487.6031
 Red. masses --      1.0530                 1.9869                 1.2158
 Frc consts  --      1.3477                 2.5777                 1.5853
 IR Inten    --      3.7332                22.7992                 4.7937

                     58                     59                     60
                      A                      A                      A
 Frequencies --   1514.6743              1550.2152              1606.9578
 Red. masses --      2.6023                 2.7522                 6.5756
 Frc consts  --      3.5176                 3.8968                10.0045
 IR Inten    --     19.7145               129.0712               160.4551

                     61                     62                     63
                      A                      A                      A
 Frequencies --   1655.4885              1658.9504              3108.2673
 Red. masses --      6.4507                 5.7131                 1.0292
 Frc consts  --     10.4162                 9.2639                 5.8583
 IR Inten    --     10.0467                27.1536                 1.1636

                     64                     65                     66
                      A                      A                      A
 Frequencies --   3213.5451              3213.5742              3222.3631
 Red. masses --      1.1074                 1.0867                 1.1091
 Frc consts  --      6.7380                 6.6118                 6.7850
 IR Inten    --      0.4429                 0.0386                 0.8676

                     67                     68                     69
                      A                      A                      A
 Frequencies --   3223.5065              3232.2394              3242.6879
 Red. masses --      1.0900                 1.0943                 1.0949
 Frc consts  --      6.6733                 6.7358                 6.7833
 IR Inten    --     18.5990                42.6645                 9.9758

                     70                     71                     72
                      A                      A                      A
 Frequencies --   3256.0098              3335.2119              3550.1705
 Red. masses --      1.0934                 1.1005                 1.0764
 Frc consts  --      6.8299                 7.2127                 7.9934
 IR Inten    --      2.3773                 8.6811               172.4332

 - Thermochemistry -
 -------------------
 Temperature   298.150 Kelvin.  Pressure   1.00000 Atm.
 Atom     1 has atomic number  8 and mass  15.99491

 Molecular mass:   238.05245 amu.
 Principal axes and moments of inertia in atomic units:
                           1         2         3
     Eigenvalues --  1037.257249302.741929705.43918
           X            0.99996   0.00432  -0.00799
           Y           -0.00427   0.99998   0.00555
           Z            0.00802  -0.00552   0.99995
 This molecule is an asymmetric top.
 Rotational symmetry number  1.
 Warning -- assumption of classical behavior for rotation
           may cause significant error
 Rotational temperatures (Kelvin)      0.08350     0.00931     0.00892
 Rotational constants (GHZ):           1.73992     0.19400     0.18595
 Zero-point vibrational energy     512805.5 (Joules/Mol)
                                  122.56346 (Kcal/Mol)
 Warning -- explicit consideration of  20 degrees of freedom as
           vibrations may cause significant error
 Vibrational temperatures:     34.97    51.59    60.57   111.07   144.11
          (Kelvin)            178.56   327.22   331.68   369.05   388.03
                              449.94   491.55   565.71   568.20   603.06
                              638.00   672.76   711.70   753.53   785.53
                              904.21   961.40  1001.92  1014.22  1022.59
                             1048.96  1120.06  1131.61  1172.59  1228.19
                             1248.57  1348.86  1412.64  1449.48  1455.34
                             1463.30  1465.42  1468.61  1511.72  1536.04
                             1540.43  1596.47  1601.87  1708.50  1725.80
                             1773.72  1778.21  1849.22  1868.83  1927.61
                             1966.89  1981.29  2000.86  2043.40  2120.57
                             2134.99  2140.33  2179.28  2230.41  2312.05
                             2381.88  2386.86  4472.10  4623.57  4623.62
                             4636.26  4637.91  4650.47  4665.50  4684.67
                             4798.63  5107.90

 Zero-point correction=                           0.195317 (Hartree/Particle)
 Thermal correction to Energy=                    0.209399
 Thermal correction to Enthalpy=                  0.210343
 Thermal correction to Gibbs Free Energy=         0.152056
 Sum of electronic and zero-point Energies=          -1116.343669
 Sum of electronic and thermal Energies=             -1116.329587
 Sum of electronic and thermal Enthalpies=           -1116.328643
 Sum of electronic and thermal Free Energies=        -1116.386931

                     E (Thermal)             CV                S
                      KCal/Mol        Cal/Mol-Kelvin    Cal/Mol-Kelvin
 Total                  131.400             53.273            122.677
 Electronic               0.000              0.000              0.000
 Translational            0.889              2.981             42.303
 Rotational               0.889              2.981             32.904
 Vibrational            129.623             47.311             47.469
 Vibration     1          0.593              1.985              6.247
 Vibration     2          0.594              1.982              5.476
 Vibration     3          0.595              1.980              5.158
 Vibration     4          0.599              1.964              3.961
 Vibration     5          0.604              1.949              3.451
 Vibration     6          0.610              1.929              3.035
 Vibration     7          0.651              1.799              1.899
 Vibration     8          0.652              1.794              1.875
 Vibration     9          0.666              1.752              1.685
 Vibration    10          0.674              1.729              1.598
 Vibration    11          0.701              1.649              1.348
 Vibration    12          0.721              1.592              1.204
 Vibration    13          0.760              1.485              0.988
 Vibration    14          0.762              1.481              0.982
 Vibration    15          0.782              1.429              0.895
 Vibration    16          0.803              1.375              0.816
 Vibration    17          0.825              1.322              0.744
 Vibration    18          0.850              1.262              0.672
 Vibration    19          0.879              1.197              0.601
 Vibration    20          0.901              1.149              0.553

                           ! Non-Optimized Parameters !
 Normal termination of Gaussian 16 at Wed Sep 23 05:30:05 2020.

 ----------------------------------------------------------------------
 #p b3lyp/6-31G(d) scrf=(iefpcm,read,solvent=water) geom=allcheck guess
 =read
 ----------------------------------------------------------------------

 Structure from the checkpoint file:  "SM44_m0.n.7.pdb.xyz.mst.n.w.chk"
 -------------------
 SM44_m0.n.7.pdb.xyz
 -------------------
 Charge =  0 Multiplicity = 1

 SCF Done:  E(RB3LYP) =  -1116.53898062     A.U. after    6 cycles
 Normal termination of Gaussian 16 at Wed Sep 23 05:30:27 2020.

 -----------------------------
 #p B3LYP/6-31G* geom=allcheck
 -----------------------------

 Structure from the checkpoint file:  "SM44_m0.n.7.pdb.xyz.mst.n.w.chk"
 -------------------
 SM44_m0.n.7.pdb.xyz
 -------------------
 Charge =  0 Multiplicity = 1

 SCF Done:  E(RB3LYP) =  -1116.51395361     A.U. after   15 cycles
 Normal termination of Gaussian 16 at Wed Sep 23 05:30:52 2020.
 Gaussian 16:  ES64L-G16RevB.01 20-Dec-2017

 ----------------------------------------------------------------------
 #p mp2/aug-cc-pVDZ scf=(MaxCycle=2000,NoVarAcc,NoIncFock) maxdisk=120G
 B geom=allcheck
 ----------------------------------------------------------------------

 Structure from the checkpoint file:  "SM44_m0.n.7.pdb.xyz.mst.n.w.chk"
 -------------------
 SM44_m0.n.7.pdb.xyz
 -------------------
 Charge =  0 Multiplicity = 1

                         Standard orientation:
 ---------------------------------------------------------------------
 Center     Atomic      Atomic             Coordinates (Angstroms)
 Number     Number       Type             X           Y           Z
 ---------------------------------------------------------------------
      1          8           0        2.909595    0.305137    1.614362
      2         16           0        3.460451   -0.177083    0.338789
      3          7           0        2.221214   -0.749488   -0.681005
      4          6           0        0.924740   -0.229894   -0.540752
      5          7           0        0.661362    1.085200   -0.766959
      6          7           0       -0.620471    1.292850   -0.601540
      7          6           0       -0.252265   -0.874162   -0.225721
      8          7           0       -1.188831    0.108359   -0.288038
      9          6           0       -2.594214    0.011949   -0.070910
     10          6           0       -3.243401   -1.207359   -0.275886
     11          6           0       -4.617192   -1.291179   -0.053050
     12          6           0       -5.335825   -0.166403    0.356330
     13          6           0       -4.673512    1.047844    0.549728
     14          6           0       -3.299405    1.143558    0.344425
     15          6           0        4.083937    1.228360   -0.574335
     16          8           0        4.463082   -1.251471    0.349434
     17          1           0        2.263444   -1.767779   -0.714739
     18          1           0       -0.476613   -1.894204    0.034397
     19          1           0       -2.687206   -2.072704   -0.615178
     20          1           0       -5.124219   -2.236560   -0.210644
     21          1           0       -6.404933   -0.235360    0.523839
     22          1           0       -5.224527    1.924468    0.871331
     23          1           0       -2.771254    2.074245    0.504133
     24          1           0        3.259874    1.925291   -0.722854
     25          1           0        4.474221    0.873247   -1.527064
     26          1           0        4.872489    1.678631    0.029602
 ---------------------------------------------------------------------

 SCF Done:  E(RHF) =  -1111.64086346     A.U. after   17 cycles
 E2 =    -0.2477416945D+01 EUMP2 =    -0.11141182804035D+04

 The electronic state is 1-A.
 Alpha  occ. eigenvalues --  -92.22770 -20.56197 -20.55938 -15.69372 -15.66838
 Alpha  occ. eigenvalues --  -15.63268 -15.62454 -11.32649 -11.31862 -11.30750
 Alpha  occ. eigenvalues --  -11.28390 -11.27171 -11.26860 -11.26644 -11.26456
 Alpha  occ. eigenvalues --  -11.26243  -9.19622  -6.88139  -6.88112  -6.87975
 Alpha  occ. eigenvalues --   -1.46567  -1.45741  -1.33762  -1.27887  -1.24104
 Alpha  occ. eigenvalues --   -1.16939  -1.09556  -1.04687  -1.04576  -1.03836
 Alpha  occ. eigenvalues --   -0.91113  -0.89071  -0.85837  -0.83482  -0.80720
 Alpha  occ. eigenvalues --   -0.77013  -0.72436  -0.71468  -0.69238  -0.67834
 Alpha  occ. eigenvalues --   -0.67180  -0.66609  -0.64806  -0.63806  -0.62629
 Alpha  occ. eigenvalues --   -0.61522  -0.60407  -0.59610  -0.54953  -0.53888
 Alpha  occ. eigenvalues --   -0.53728  -0.52628  -0.52267  -0.50259  -0.48702
 Alpha  occ. eigenvalues --   -0.46612  -0.46576  -0.45822  -0.44170  -0.36708
 Alpha  occ. eigenvalues --   -0.36233  -0.33318
 Alpha virt. eigenvalues --    0.02458   0.03172   0.03880   0.04422   0.04945
 Alpha virt. eigenvalues --    0.05267   0.06118   0.06338   0.06945   0.07747
 Alpha virt. eigenvalues --    0.07897   0.08770   0.09674   0.10395   0.10562

 Mulliken charges:
               1
     1  O   -1.161680
     2  S    2.657352
     3  N   -0.948776
     4  C    0.456595
     5  N   -0.598232
     6  N   -0.473542
     7  C    1.445134
     8  N   -0.707445
     9  C    0.866416
    10  C    0.106316
    11  C    0.751731
    12  C    0.573360
    13  C    0.609431
    14  C    0.370736
    15  C    0.098347
    16  O   -1.153095
    17  H   -0.042235
    18  H   -0.463515
    19  H   -0.654388
    20  H   -0.434619
    21  H   -0.442324
    22  H   -0.430090
    23  H   -0.517480
    24  H    0.031006
    25  H    0.013269
    26  H    0.047729
 Sum of Mulliken charges =  -0.00000

 Dipole moment (field-independent basis, Debye):
    X=             -4.4995    Y=             -1.3614    Z=             -2.3813  Tot=              5.2697
 Quadrupole moment (field-independent basis, Debye-Ang):
   XX=            -92.8968   YY=            -94.0967   ZZ=           -110.5465
   XY=             12.6271   XZ=            -13.4308   YZ=              3.9563

 Normal termination of Gaussian 16 at Wed Sep 23 05:46:07 2020.
