 Gaussian 16, Revision B.01,

 ----------------------------------------------------------------------
 #p b3lyp/6-31G(d) opt freq NoSymm scf=(MaxCycle=2000,NoVarAcc,NoIncFoc
 k) scrf=(iefpcm,read,solvent=water)
 ----------------------------------------------------------------------

 -------------------
 SM44_m0.n.9.pdb.xyz
 -------------------
 Symbolic Z-matrix:
 Charge =  0 Multiplicity = 1

 SCF Done:  E(RB3LYP) =  -1116.53839549     A.U. after   13 cycles
 SCF Done:  E(RB3LYP) =  -1116.53844683     A.U. after    9 cycles
 SCF Done:  E(RB3LYP) =  -1116.53846556     A.U. after    8 cycles
 SCF Done:  E(RB3LYP) =  -1116.53848564     A.U. after    8 cycles
 SCF Done:  E(RB3LYP) =  -1116.53851746     A.U. after    9 cycles
 SCF Done:  E(RB3LYP) =  -1116.53855008     A.U. after    9 cycles
 SCF Done:  E(RB3LYP) =  -1116.53857029     A.U. after    8 cycles
 SCF Done:  E(RB3LYP) =  -1116.53857875     A.U. after    8 cycles
 SCF Done:  E(RB3LYP) =  -1116.53858558     A.U. after    7 cycles
 SCF Done:  E(RB3LYP) =  -1116.53858358     A.U. after    7 cycles
 Optimization completed.
    -- Stationary point found.
 Normal termination of Gaussian 16 at Wed Sep 23 05:26:22 2020.

 --------------------------------------------------------------------
 #P Geom=AllCheck Guess=TCheck SCRF=Check GenChk RB3LYP/6-31G(d) Freq
 --------------------------------------------------------------------

 Structure from the checkpoint file:  "SM44_m0.n.9.pdb.xyz.mst.n.w.chk"
 -------------------
 SM44_m0.n.9.pdb.xyz
 -------------------
 Charge =  0 Multiplicity = 1

 SCF Done:  E(RB3LYP) =  -1116.53858358     A.U. after    1 cycles

  Exact polarizability: 271.157   5.916 191.548  11.197  -9.020 100.992
 Approx polarizability: 291.005   7.240 236.451  17.307 -18.525 125.950

                      1                      2                      3
                      A                      A                      A
 Frequencies --     21.7283                41.2539                52.8421
 Red. masses --      5.7472                 5.2439                 4.6910
 Frc consts  --      0.0016                 0.0053                 0.0077
 IR Inten    --      3.8358                 0.6080                 8.6127

                      4                      5                      6
                      A                      A                      A
 Frequencies --     80.8540               111.8974               132.0985
 Red. masses --      5.6938                 6.0614                 5.2871
 Frc consts  --      0.0219                 0.0447                 0.0544
 IR Inten    --      9.1042                 0.5006                 0.9983

                      7                      8                      9
                      A                      A                      A
 Frequencies --    226.3669               235.4456               245.0353
 Red. masses --      1.1759                 5.8980                 2.8652
 Frc consts  --      0.0355                 0.1926                 0.1014
 IR Inten    --      1.2309                 2.2944                 2.2261

                     10                     11                     12
                      A                      A                      A
 Frequencies --    274.0358               322.5870               349.0833
 Red. masses --      7.5494                 4.7045                 5.2918
 Frc consts  --      0.3340                 0.2884                 0.3799
 IR Inten    --      1.3637                 3.7973                 4.9027

                     13                     14                     15
                      A                      A                      A
 Frequencies --    377.7487               400.3613               420.7021
 Red. masses --      3.9276                 8.1529                 3.0386
 Frc consts  --      0.3302                 0.7700                 0.3169
 IR Inten    --     26.7649                 5.2189                 0.0104

                     16                     17                     18
                      A                      A                      A
 Frequencies --    473.6974               481.7383               490.3495
 Red. masses --      4.8276                 2.4132                 7.1159
 Frc consts  --      0.6382                 0.3300                 1.0081
 IR Inten    --     12.1992                74.0607                66.2173

                     19                     20                     21
                      A                      A                      A
 Frequencies --    532.8232               562.4500               627.4546
 Red. masses --      3.1042                 5.1607                 6.2835
 Frc consts  --      0.5192                 0.9619                 1.4575
 IR Inten    --     29.2150               159.9404                 0.1084

                     22                     23                     24
                      A                      A                      A
 Frequencies --    663.3844               699.2147               706.2264
 Red. masses --      3.5083                 5.7932                 2.4150
 Frc consts  --      0.9097                 1.6688                 0.7097
 IR Inten    --      8.5796                20.2395                31.2445

                     25                     26                     27
                      A                      A                      A
 Frequencies --    714.6735               742.2059               780.0537
 Red. masses --      8.3616                 5.8007                 1.5713
 Frc consts  --      2.5163                 1.8827                 0.5633
 IR Inten    --     21.4484               151.6297                78.8729

                     28                     29                     30
                      A                      A                      A
 Frequencies --    792.2335               820.4921               851.6576
 Red. masses --      1.8764                 3.1508                 3.1052
 Frc consts  --      0.6939                 1.2497                 1.3270
 IR Inten    --      9.0170                 2.4545                84.3257

                     31                     32                     33
                      A                      A                      A
 Frequencies --    856.3126               939.2706               984.0556
 Red. masses --      1.2750                 1.3835                 1.3431
 Frc consts  --      0.5508                 0.7192                 0.7663
 IR Inten    --      1.5526                 5.8132                 0.3012

                     34                     35                     36
                      A                      A                      A
 Frequencies --   1005.7179              1010.8833              1012.9544
 Red. masses --      6.5955                 1.4077                 1.2685
 Frc consts  --      3.9305                 0.8475                 0.7669
 IR Inten    --     42.9166                28.5496                 0.3518

                     37                     38                     39
                      A                      A                      A
 Frequencies --   1019.9706              1020.7653              1046.5856
 Red. masses --      4.8233                 1.4833                 3.7099
 Frc consts  --      2.9565                 0.9106                 2.3942
 IR Inten    --      5.3501                42.5331                 3.3054

                     40                     41                     42
                      A                      A                      A
 Frequencies --   1063.1688              1066.8907              1109.4119
 Red. masses --      2.0271                 4.1137                 1.5545
 Frc consts  --      1.3500                 2.7588                 1.1273
 IR Inten    --     56.0312                91.2144                12.1507

                     43                     44                     45
                      A                      A                      A
 Frequencies --   1123.1072              1187.9248              1200.8914
 Red. masses --     11.5257                 1.0987                 1.1758
 Frc consts  --      8.5656                 0.9135                 0.9990
 IR Inten    --    418.2184                 0.1140                 0.5151

                     46                     47                     48
                      A                      A                      A
 Frequencies --   1226.6166              1233.8499              1291.6504
 Red. masses --      3.0225                 2.3316                 6.3321
 Frc consts  --      2.6793                 2.0914                 6.2243
 IR Inten    --     16.5849                 1.3401               193.5911

                     49                     50                     51
                      A                      A                      A
 Frequencies --   1305.4110              1345.1055              1365.3738
 Red. masses --     12.0958                 2.6412                 2.4831
 Frc consts  --     12.1445                 2.8155                 2.7274
 IR Inten    --    217.0257                65.3599                 1.2416

                     52                     53                     54
                      A                      A                      A
 Frequencies --   1383.2309              1396.8270              1425.4411
 Red. masses --      3.2867                 1.1998                 2.0468
 Frc consts  --      3.7050                 1.3792                 2.4503
 IR Inten    --    120.4131                16.6598                18.3859

                     55                     56                     57
                      A                      A                      A
 Frequencies --   1482.1907              1482.9055              1488.5769
 Red. masses --      1.0549                 1.9269                 1.1946
 Frc consts  --      1.3654                 2.4965                 1.5596
 IR Inten    --      6.5293                25.9352                 7.9281

                     58                     59                     60
                      A                      A                      A
 Frequencies --   1514.1540              1549.3340              1590.4028
 Red. masses --      2.5996                 2.7470                 6.1761
 Frc consts  --      3.5115                 3.8851                 9.2040
 IR Inten    --     13.8157               125.5063                85.0778

                     61                     62                     63
                      A                      A                      A
 Frequencies --   1654.1364              1657.0266              3109.3864
 Red. masses --      6.3819                 5.7086                 1.0293
 Frc consts  --     10.2883                 9.2351                 5.8634
 IR Inten    --      6.2126                25.1264                 0.0496

                     64                     65                     66
                      A                      A                      A
 Frequencies --   3210.9203              3211.6261              3219.6879
 Red. masses --      1.1072                 1.0864                 1.1086
 Frc consts  --      6.7256                 6.6021                 6.7711
 IR Inten    --      0.3827                 0.2126                 0.0945

                     67                     68                     69
                      A                      A                      A
 Frequencies --   3220.8029              3228.7351              3237.1709
 Red. masses --      1.0897                 1.0935                 1.0964
 Frc consts  --      6.6603                 6.7161                 6.7696
 IR Inten    --     15.5588                39.6071                14.7668

                     70                     71                     72
                      A                      A                      A
 Frequencies --   3253.1918              3340.2181              3490.3229
 Red. masses --      1.0934                 1.1004                 1.0762
 Frc consts  --      6.8176                 7.2332                 7.7246
 IR Inten    --      2.6613                 8.4724               152.3444

 - Thermochemistry -
 -------------------
 Temperature   298.150 Kelvin.  Pressure   1.00000 Atm.
 Atom     1 has atomic number  8 and mass  15.99491

 Molecular mass:   238.05245 amu.
 Principal axes and moments of inertia in atomic units:
                           1         2         3
     Eigenvalues --  1117.131109035.101579631.03717
           X            0.99999  -0.00329   0.00182
           Y            0.00331   0.99994  -0.01063
           Z           -0.00178   0.01063   0.99994
 This molecule is an asymmetric top.
 Rotational symmetry number  1.
 Warning -- assumption of classical behavior for rotation
           may cause significant error
 Rotational temperatures (Kelvin)      0.07753     0.00959     0.00899
 Rotational constants (GHZ):           1.61551     0.19975     0.18739
 Zero-point vibrational energy     513155.5 (Joules/Mol)
                                  122.64711 (Kcal/Mol)
 Warning -- explicit consideration of  20 degrees of freedom as
           vibrations may cause significant error
 Vibrational temperatures:     31.26    59.36    76.03   116.33   161.00
          (Kelvin)            190.06   325.69   338.75   352.55   394.28
                              464.13   502.25   543.50   576.03   605.30
                              681.54   693.11   705.50   766.61   809.24
                              902.77   954.46  1006.01  1016.10  1028.26
                             1067.87  1122.32  1139.85  1180.51  1225.35
                             1232.04  1351.40  1415.84  1447.00  1454.44
                             1457.42  1467.51  1468.65  1505.80  1529.66
                             1535.02  1596.20  1615.90  1709.16  1727.81
                             1764.83  1775.23  1858.40  1878.20  1935.31
                             1964.47  1990.16  2009.72  2050.89  2132.54
                             2133.57  2141.73  2178.53  2229.15  2288.23
                             2379.93  2384.09  4473.71  4619.80  4620.81
                             4632.41  4634.02  4645.43  4657.57  4680.62
                             4805.83  5021.80

 Zero-point correction=                           0.195451 (Hartree/Particle)
 Thermal correction to Energy=                    0.209398
 Thermal correction to Enthalpy=                  0.210342
 Thermal correction to Gibbs Free Energy=         0.152581
 Sum of electronic and zero-point Energies=          -1116.343133
 Sum of electronic and thermal Energies=             -1116.329186
 Sum of electronic and thermal Enthalpies=           -1116.328242
 Sum of electronic and thermal Free Energies=        -1116.386002

                     E (Thermal)             CV                S
                      KCal/Mol        Cal/Mol-Kelvin    Cal/Mol-Kelvin
 Total                  131.399             53.059            121.568
 Electronic               0.000              0.000              0.000
 Translational            0.889              2.981             42.303
 Rotational               0.889              2.981             32.941
 Vibrational            129.622             47.097             46.323
 Vibration     1          0.593              1.985              6.470
 Vibration     2          0.594              1.981              5.198
 Vibration     3          0.596              1.976              4.708
 Vibration     4          0.600              1.962              3.870
 Vibration     5          0.607              1.940              3.236
 Vibration     6          0.612              1.921              2.915
 Vibration     7          0.650              1.801              1.908
 Vibration     8          0.655              1.787              1.837
 Vibration     9          0.660              1.771              1.766
 Vibration    10          0.676              1.721              1.571
 Vibration    11          0.708              1.630              1.297
 Vibration    12          0.726              1.577              1.170
 Vibration    13          0.748              1.518              1.048
 Vibration    14          0.766              1.469              0.961
 Vibration    15          0.783              1.425              0.890
 Vibration    16          0.830              1.308              0.727
 Vibration    17          0.838              1.291              0.705
 Vibration    18          0.846              1.271              0.683
 Vibration    19          0.888              1.177              0.581
 Vibration    20          0.918              1.113              0.519

                           ! Non-Optimized Parameters !
 Normal termination of Gaussian 16 at Wed Sep 23 05:32:16 2020.

 ----------------------------------------------------------------------
 #p b3lyp/6-31G(d) scrf=(iefpcm,read,solvent=water) geom=allcheck guess
 =read
 ----------------------------------------------------------------------

 Structure from the checkpoint file:  "SM44_m0.n.9.pdb.xyz.mst.n.w.chk"
 -------------------
 SM44_m0.n.9.pdb.xyz
 -------------------
 Charge =  0 Multiplicity = 1

 SCF Done:  E(RB3LYP) =  -1116.53859103     A.U. after    6 cycles
 Normal termination of Gaussian 16 at Wed Sep 23 05:32:41 2020.

 -----------------------------
 #p B3LYP/6-31G* geom=allcheck
 -----------------------------

 Structure from the checkpoint file:  "SM44_m0.n.9.pdb.xyz.mst.n.w.chk"
 -------------------
 SM44_m0.n.9.pdb.xyz
 -------------------
 Charge =  0 Multiplicity = 1

 SCF Done:  E(RB3LYP) =  -1116.50330096     A.U. after   15 cycles
 Normal termination of Gaussian 16 at Wed Sep 23 05:33:09 2020.
 Gaussian 16:  ES64L-G16RevB.01 20-Dec-2017

 ----------------------------------------------------------------------
 #p mp2/aug-cc-pVDZ scf=(MaxCycle=2000,NoVarAcc,NoIncFock) maxdisk=120G
 B geom=allcheck
 ----------------------------------------------------------------------

 Structure from the checkpoint file:  "SM44_m0.n.9.pdb.xyz.mst.n.w.chk"
 -------------------
 SM44_m0.n.9.pdb.xyz
 -------------------
 Charge =  0 Multiplicity = 1

                         Standard orientation:
 ---------------------------------------------------------------------
 Center     Atomic      Atomic             Coordinates (Angstroms)
 Number     Number       Type             X           Y           Z
 ---------------------------------------------------------------------
      1          8           0       -4.712211    0.223225   -0.688823
      2         16           0       -3.483903    0.152088    0.112331
      3          7           0       -2.274255   -0.303875   -0.986698
      4          6           0       -0.951427   -0.497877   -0.541023
      5          7           0       -0.573439   -1.637403    0.103406
      6          7           0        0.706269   -1.573413    0.356036
      7          6           0        0.157241    0.307976   -0.705426
      8          7           0        1.168055   -0.401720   -0.146826
      9          6           0        2.547834   -0.056776   -0.043788
     10          6           0        3.502925   -1.073737    0.020577
     11          6           0        4.849975   -0.732304    0.122477
     12          6           0        5.240138    0.608637    0.146636
     13          6           0        4.274596    1.615014    0.077290
     14          6           0        2.921497    1.288665   -0.010362
     15          6           0       -3.081302    1.800733    0.698083
     16          8           0       -3.404110   -0.772796    1.248330
     17          1           0       -2.349508    0.247600   -1.844266
     18          1           0        0.296091    1.262892   -1.181604
     19          1           0        3.187528   -2.108600   -0.014381
     20          1           0        5.595276   -1.518606    0.172058
     21          1           0        6.290521    0.868303    0.219343
     22          1           0        4.569809    2.658178    0.101756
     23          1           0        2.167950    2.066996   -0.040046
     24          1           0       -3.084865    2.483427   -0.150903
     25          1           0       -2.103653    1.776741    1.178045
     26          1           0       -3.851405    2.079111    1.418426
 ---------------------------------------------------------------------

 SCF Done:  E(RHF) =  -1111.63136704     A.U. after   17 cycles
 E2 =    -0.2477231803D+01 EUMP2 =    -0.11141085988454D+04

 The electronic state is 1-A.
 Alpha  occ. eigenvalues --  -92.22927 -20.56055 -20.55695 -15.69423 -15.66793
 Alpha  occ. eigenvalues --  -15.63539 -15.62464 -11.32697 -11.32217 -11.31529
 Alpha  occ. eigenvalues --  -11.29794 -11.27604 -11.27264 -11.27015 -11.26834
 Alpha  occ. eigenvalues --  -11.26621  -9.19734  -6.88257  -6.88226  -6.88109
 Alpha  occ. eigenvalues --   -1.46563  -1.45757  -1.33726  -1.27759  -1.24344
 Alpha  occ. eigenvalues --   -1.17284  -1.09709  -1.05249  -1.05007  -1.04111
 Alpha  occ. eigenvalues --   -0.91184  -0.89389  -0.86090  -0.83646  -0.81294
 Alpha  occ. eigenvalues --   -0.77356  -0.73141  -0.71887  -0.69418  -0.68741
 Alpha  occ. eigenvalues --   -0.67199  -0.66875  -0.65044  -0.64052  -0.63159
 Alpha  occ. eigenvalues --   -0.61883  -0.61486  -0.60375  -0.54731  -0.54464
 Alpha  occ. eigenvalues --   -0.53585  -0.52550  -0.51029  -0.49596  -0.49190
 Alpha  occ. eigenvalues --   -0.46873  -0.46734  -0.45561  -0.43827  -0.37527
 Alpha  occ. eigenvalues --   -0.36625  -0.33965
 Alpha virt. eigenvalues --    0.01550   0.02732   0.03289   0.03712   0.04523
 Alpha virt. eigenvalues --    0.05276   0.05736   0.06069   0.06715   0.07227
 Alpha virt. eigenvalues --    0.08337   0.08783   0.09416   0.09928   0.10548

 Mulliken charges:
               1
     1  O   -1.131879
     2  S    2.611992
     3  N   -0.818922
     4  C    0.440061
     5  N   -0.504519
     6  N   -0.495750
     7  C    1.280049
     8  N   -0.667776
     9  C    0.964582
    10  C    0.389291
    11  C    0.581421
    12  C    0.555062
    13  C    0.705892
    14  C    0.117601
    15  C    0.064539
    16  O   -1.126033
    17  H   -0.054125
    18  H   -0.495104
    19  H   -0.523825
    20  H   -0.428056
    21  H   -0.442308
    22  H   -0.438966
    23  H   -0.657946
    24  H    0.029669
    25  H    0.032626
    26  H    0.012423
 Sum of Mulliken charges =  -0.00000

 Dipole moment (field-independent basis, Debye):
    X=              6.8206    Y=              7.2956    Z=             -2.0439  Tot=             10.1943
 Quadrupole moment (field-independent basis, Debye-Ang):
   XX=           -111.5447   YY=            -96.5691   ZZ=           -104.1809
   XY=            -13.3342   XZ=              0.1968   YZ=              3.3632

 Normal termination of Gaussian 16 at Wed Sep 23 05:52:42 2020.
