 Gaussian 16, Revision B.01,

 ----------------------------------------------------------------------
 #p b3lyp/6-31G(d) opt freq NoSymm scf=(MaxCycle=2000,NoVarAcc,NoIncFoc
 k) scrf=(iefpcm,read,solvent=water)
 ----------------------------------------------------------------------

 -------------------
 SM45_m0.n.1.pdb.xyz
 -------------------
 Symbolic Z-matrix:
 Charge =  0 Multiplicity = 1

 SCF Done:  E(RB3LYP) =  -1308.27066045     A.U. after   13 cycles
 SCF Done:  E(RB3LYP) =  -1308.27070172     A.U. after    9 cycles
 SCF Done:  E(RB3LYP) =  -1308.27070326     A.U. after    8 cycles
 SCF Done:  E(RB3LYP) =  -1308.27070410     A.U. after    7 cycles
 SCF Done:  E(RB3LYP) =  -1308.27070358     A.U. after    8 cycles
 SCF Done:  E(RB3LYP) =  -1308.27070121     A.U. after    9 cycles
 SCF Done:  E(RB3LYP) =  -1308.27070443     A.U. after    9 cycles
 SCF Done:  E(RB3LYP) =  -1308.27070014     A.U. after    9 cycles
 SCF Done:  E(RB3LYP) =  -1308.27070228     A.U. after    9 cycles
 SCF Done:  E(RB3LYP) =  -1308.27070506     A.U. after    9 cycles
 SCF Done:  E(RB3LYP) =  -1308.27071344     A.U. after    7 cycles
 SCF Done:  E(RB3LYP) =  -1308.27071468     A.U. after    8 cycles
 SCF Done:  E(RB3LYP) =  -1308.27071362     A.U. after    9 cycles
 SCF Done:  E(RB3LYP) =  -1308.27071370     A.U. after    8 cycles
 SCF Done:  E(RB3LYP) =  -1308.27071470     A.U. after    9 cycles
 SCF Done:  E(RB3LYP) =  -1308.27071405     A.U. after    9 cycles
 Optimization completed.
    -- Stationary point found.
 Normal termination of Gaussian 16 at Wed Sep 23 06:32:04 2020.

 --------------------------------------------------------------------
 #P Geom=AllCheck Guess=TCheck SCRF=Check GenChk RB3LYP/6-31G(d) Freq
 --------------------------------------------------------------------

 Structure from the checkpoint file:  "SM45_m0.n.1.pdb.xyz.mst.n.w.chk"
 -------------------
 SM45_m0.n.1.pdb.xyz
 -------------------
 Charge =  0 Multiplicity = 1

 SCF Done:  E(RB3LYP) =  -1308.27071405     A.U. after    1 cycles

  Exact polarizability: 285.364 -16.930 309.151 -34.461   7.680 168.032
 Approx polarizability: 314.951 -17.782 363.578 -47.082   6.716 213.224

                      1                      2                      3
                      A                      A                      A
 Frequencies --     16.3373                25.1441                28.7581
 Red. masses --      6.3026                 5.2788                 3.8629
 Frc consts  --      0.0010                 0.0020                 0.0019
 IR Inten    --      2.1178                 1.5508                 0.2719

                      4                      5                      6
                      A                      A                      A
 Frequencies --     32.2362                63.5586                83.7079
 Red. masses --      4.9510                 6.4661                 6.2466
 Frc consts  --      0.0030                 0.0154                 0.0258
 IR Inten    --      2.6552                 9.7612                 0.1459

                      7                      8                      9
                      A                      A                      A
 Frequencies --    105.7662               144.1064               178.7747
 Red. masses --      7.1194                 4.9199                 6.2813
 Frc consts  --      0.0469                 0.0602                 0.1183
 IR Inten    --      1.0751                 4.5286                 3.4109

                     10                     11                     12
                      A                      A                      A
 Frequencies --    238.2356               248.6643               261.1055
 Red. masses --      5.8057                 5.5642                 9.9940
 Frc consts  --      0.1941                 0.2027                 0.4014
 IR Inten    --      6.4155                 2.3731                 0.8929

                     13                     14                     15
                      A                      A                      A
 Frequencies --    308.3022               332.0938               366.8447
 Red. masses --      8.7364                 6.6915                 2.5569
 Frc consts  --      0.4893                 0.4348                 0.2027
 IR Inten    --      6.7212                 3.0168                41.8016

                     16                     17                     18
                      A                      A                      A
 Frequencies --    376.9427               412.8339               418.1093
 Red. masses --      7.3615                 2.9534                 3.2485
 Frc consts  --      0.6163                 0.2966                 0.3346
 IR Inten    --      7.6467                 0.1148                 0.3503

                     19                     20                     21
                      A                      A                      A
 Frequencies --    421.5542               457.9633               466.5453
 Red. masses --      7.3739                 5.5729                 2.7626
 Frc consts  --      0.7721                 0.6886                 0.3543
 IR Inten    --      2.3902                 8.9871                64.0037

                     22                     23                     24
                      A                      A                      A
 Frequencies --    503.2846               535.2580               554.7687
 Red. masses --      4.2670                 5.2608                 5.9135
 Frc consts  --      0.6368                 0.8880                 1.0723
 IR Inten    --     94.1452                96.7161               131.2906

                     25                     26                     27
                      A                      A                      A
 Frequencies --    572.1484               625.4641               627.1472
 Red. masses --      6.9306                 6.4416                 6.2918
 Frc consts  --      1.3367                 1.4847                 1.4580
 IR Inten    --    163.7295                 0.2927                 0.9072

                     28                     29                     30
                      A                      A                      A
 Frequencies --    666.0312               696.2605               697.5506
 Red. masses --      3.3609                 4.0315                 2.6231
 Frc consts  --      0.8784                 1.1515                 0.7520
 IR Inten    --     18.3358                 7.4531                45.8836

                     31                     32                     33
                      A                      A                      A
 Frequencies --    704.5859               708.6160               719.6310
 Red. masses --      2.9610                 5.2481                 6.4865
 Frc consts  --      0.8661                 1.5527                 1.9792
 IR Inten    --     29.4240                13.1101                41.6484

                     34                     35                     36
                      A                      A                      A
 Frequencies --    764.3327               778.8197               803.2523
 Red. masses --      1.4870                 1.6522                 1.6995
 Frc consts  --      0.5118                 0.5905                 0.6461
 IR Inten    --     35.0889                71.1404                32.3874

                     37                     38                     39
                      A                      A                      A
 Frequencies --    819.4794               853.2114               858.9698
 Red. masses --      4.0138                 1.2518                 1.2489
 Frc consts  --      1.5881                 0.5369                 0.5429
 IR Inten    --      7.7821                 0.8562                 1.0581

                     40                     41                     42
                      A                      A                      A
 Frequencies --    874.2105               935.7722               946.1315
 Red. masses --      3.4782                 1.3932                 1.3074
 Frc consts  --      1.5662                 0.7188                 0.6896
 IR Inten    --    233.8230                 6.6712                 0.7198

                     43                     44                     45
                      A                      A                      A
 Frequencies --    982.2595               988.8202              1005.9946
 Red. masses --      1.3454                 1.3581                 7.6961
 Frc consts  --      0.7648                 0.7824                 4.5890
 IR Inten    --      0.2322                 0.2203                32.8842

                     46                     47                     48
                      A                      A                      A
 Frequencies --   1010.8875              1014.0642              1019.9478
 Red. masses --      1.2696                 6.4655                 6.0429
 Frc consts  --      0.7644                 3.9173                 3.7038
 IR Inten    --      0.2996                 7.1966                 0.5031

                     49                     50                     51
                      A                      A                      A
 Frequencies --   1020.9103              1047.3707              1048.0381
 Red. masses --      1.2900                 3.2347                 3.1117
 Frc consts  --      0.7922                 2.0907                 2.0137
 IR Inten    --      0.0677                 7.7446                17.7124

                     52                     53                     54
                      A                      A                      A
 Frequencies --   1061.3972              1065.5957              1081.1272
 Red. masses --      2.1005                 4.1039                 3.8450
 Frc consts  --      1.3942                 2.7455                 2.6479
 IR Inten    --    125.7623                41.8702               104.0023

                     55                     56                     57
                      A                      A                      A
 Frequencies --   1108.6300              1109.2959              1128.9615
 Red. masses --      1.5453                 1.5491                 4.7400
 Frc consts  --      1.1190                 1.1231                 3.5595
 IR Inten    --     12.0000                12.8233               282.9285

                     58                     59                     60
                      A                      A                      A
 Frequencies --   1188.0783              1193.9663              1198.8047
 Red. masses --      1.1216                 1.0951                 1.1695
 Frc consts  --      0.9328                 0.9198                 0.9903
 IR Inten    --      0.3374                 0.3219                 0.8141

                     61                     62                     63
                      A                      A                      A
 Frequencies --   1204.8560              1227.2234              1238.7502
 Red. masses --      1.1643                 3.9483                 2.0346
 Frc consts  --      0.9959                 3.5035                 1.8394
 IR Inten    --      0.5462                23.7501                 3.4657

                     64                     65                     66
                      A                      A                      A
 Frequencies --   1277.7138              1291.4588              1328.0833
 Red. masses --      7.7912                10.0660                 2.6777
 Frc consts  --      7.4941                 9.8916                 2.7827
 IR Inten    --    335.8367                61.3104                63.2449

                     67                     68                     69
                      A                      A                      A
 Frequencies --   1343.4947              1363.8710              1364.5193
 Red. masses --      1.4232                 5.7653                 2.3363
 Frc consts  --      1.5135                 6.3185                 2.5629
 IR Inten    --      1.8158                 3.8099                 2.4509

                     70                     71                     72
                      A                      A                      A
 Frequencies --   1365.7364              1431.6740              1477.0408
 Red. masses --      2.4833                 2.3307                 3.1730
 Frc consts  --      2.7290                 2.8146                 4.0786
 IR Inten    --      8.0450               173.2472                 3.8693

                     73                     74                     75
                      A                      A                      A
 Frequencies --   1492.7130              1513.5646              1523.5391
 Red. masses --      2.1736                 2.5838                 2.0592
 Frc consts  --      2.8535                 3.4875                 2.8161
 IR Inten    --     24.5481                20.1650                 3.4920

                     76                     77                     78
                      A                      A                      A
 Frequencies --   1549.3679              1604.4928              1641.8900
 Red. masses --      2.7964                 6.3425                 5.4477
 Frc consts  --      3.9551                 9.6203                 8.6527
 IR Inten    --    107.7956                63.1770                 5.7626

                     79                     80                     81
                      A                      A                      A
 Frequencies --   1645.1982              1654.6771              1657.1545
 Red. masses --      5.9250                 6.4077                 5.7224
 Frc consts  --      9.4488                10.3366                 9.2588
 IR Inten    --      0.0767                10.4740                22.8337

                     82                     83                     84
                      A                      A                      A
 Frequencies --   3213.8333              3216.9621              3221.7206
 Red. masses --      1.0863                 1.0869                 1.0898
 Frc consts  --      6.6109                 6.6270                 6.6647
 IR Inten    --      0.5034                 1.8586                16.7226

                     85                     86                     87
                      A                      A                      A
 Frequencies --   3228.0881              3231.4813              3234.9124
 Red. masses --      1.0894                 1.0932                 1.0933
 Frc consts  --      6.6882                 6.7261                 6.7407
 IR Inten    --     13.9286                37.5140                20.9265

                     88                     89                     90
                      A                      A                      A
 Frequencies --   3239.3925              3242.8550              3252.0858
 Red. masses --      1.0963                 1.0959                 1.0936
 Frc consts  --      6.7784                 6.7899                 6.8143
 IR Inten    --     14.6181                12.8016                 5.3578

                     91                     92                     93
                      A                      A                      A
 Frequencies --   3252.5143              3340.7153              3492.2208
 Red. masses --      1.0934                 1.1008                 1.0754
 Frc consts  --      6.8152                 7.2384                 7.7275
 IR Inten    --      2.8219                 7.8576               188.8258

 - Thermochemistry -
 -------------------
 Temperature   298.150 Kelvin.  Pressure   1.00000 Atm.
 Atom     1 has atomic number  8 and mass  15.99491

 Molecular mass:   300.06810 amu.
 Principal axes and moments of inertia in atomic units:
                           1         2         3
     Eigenvalues --  3617.67721********************
           X            0.99997  -0.00516   0.00585
           Y            0.00516   0.99999   0.00074
           Z           -0.00585  -0.00071   0.99998
 This molecule is an asymmetric top.
 Rotational symmetry number  1.
 Warning -- assumption of classical behavior for rotation
           may cause significant error
 Rotational temperatures (Kelvin)      0.02394     0.00801     0.00647
 Rotational constants (GHZ):           0.49887     0.16683     0.13480
 Zero-point vibrational energy     651190.0 (Joules/Mol)
                                  155.63814 (Kcal/Mol)
 Warning -- explicit consideration of  25 degrees of freedom as
           vibrations may cause significant error
 Vibrational temperatures:     23.51    36.18    41.38    46.38    91.45
          (Kelvin)            120.44   152.17   207.34   257.22   342.77
                              357.77   375.67   443.58   477.81   527.81
                              542.34   593.98   601.57   606.52   658.91
                              671.25   724.11   770.12   798.19   823.19
                              899.90   902.32   958.27  1001.76  1003.62
                             1013.74  1019.54  1035.39  1099.70  1120.55
                             1155.70  1179.05  1227.58  1235.87  1257.79
                             1346.37  1361.27  1413.25  1422.69  1447.40
                             1454.44  1459.01  1467.48  1468.86  1506.93
                             1507.89  1527.11  1533.15  1555.50  1595.07
                             1596.03  1624.32  1709.38  1717.85  1724.81
                             1733.52  1765.70  1782.29  1838.35  1858.12
                             1910.82  1932.99  1962.31  1963.24  1964.99
                             2059.86  2125.13  2147.68  2177.68  2192.03
                             2229.19  2308.51  2362.31  2367.07  2380.71
                             2384.28  4623.99  4628.49  4635.34  4644.50
                             4649.38  4654.32  4660.76  4665.75  4679.03
                             4679.64  4806.54  5024.53

 Zero-point correction=                           0.248025 (Hartree/Particle)
 Thermal correction to Energy=                    0.265304
 Thermal correction to Enthalpy=                  0.266248
 Thermal correction to Gibbs Free Energy=         0.199063
 Sum of electronic and zero-point Energies=          -1308.022689
 Sum of electronic and thermal Energies=             -1308.005410
 Sum of electronic and thermal Enthalpies=           -1308.004466
 Sum of electronic and thermal Free Energies=        -1308.071651

                     E (Thermal)             CV                S
                      KCal/Mol        Cal/Mol-Kelvin    Cal/Mol-Kelvin
 Total                  166.481             66.724            141.403
 Electronic               0.000              0.000              0.000
 Translational            0.889              2.981             42.993
 Rotational               0.889              2.981             34.615
 Vibrational            164.703             60.762             63.794
 Vibration     1          0.593              1.986              7.036
 Vibration     2          0.593              1.985              6.180
 Vibration     3          0.593              1.984              5.913
 Vibration     4          0.594              1.983              5.687
 Vibration     5          0.597              1.972              4.344
 Vibration     6          0.601              1.960              3.802
 Vibration     7          0.605              1.945              3.345
 Vibration     8          0.616              1.909              2.749
 Vibration     9          0.629              1.868              2.341
 Vibration    10          0.656              1.782              1.816
 Vibration    11          0.662              1.765              1.740
 Vibration    12          0.669              1.744              1.654
 Vibration    13          0.698              1.658              1.371
 Vibration    14          0.714              1.611              1.250
 Vibration    15          0.740              1.540              1.093
 Vibration    16          0.747              1.519              1.051
 Vibration    17          0.777              1.442              0.917
 Vibration    18          0.781              1.431              0.898
 Vibration    19          0.784              1.423              0.887
 Vibration    20          0.816              1.343              0.772
 Vibration    21          0.824              1.324              0.747
 Vibration    22          0.859              1.243              0.650
 Vibration    23          0.890              1.172              0.576
 Vibration    24          0.910              1.129              0.534
 Vibration    25          0.928              1.091              0.500

                           ! Non-Optimized Parameters !
 Normal termination of Gaussian 16 at Wed Sep 23 06:43:14 2020.

 ----------------------------------------------------------------------
 #p b3lyp/6-31G(d) scrf=(iefpcm,read,solvent=water) geom=allcheck guess
 =read
 ----------------------------------------------------------------------

 Structure from the checkpoint file:  "SM45_m0.n.1.pdb.xyz.mst.n.w.chk"
 -------------------
 SM45_m0.n.1.pdb.xyz
 -------------------
 Charge =  0 Multiplicity = 1

 SCF Done:  E(RB3LYP) =  -1308.27070044     A.U. after    5 cycles
 Normal termination of Gaussian 16 at Wed Sep 23 06:43:45 2020.

 -----------------------------
 #p B3LYP/6-31G* geom=allcheck
 -----------------------------

 Structure from the checkpoint file:  "SM45_m0.n.1.pdb.xyz.mst.n.w.chk"
 -------------------
 SM45_m0.n.1.pdb.xyz
 -------------------
 Charge =  0 Multiplicity = 1

 SCF Done:  E(RB3LYP) =  -1308.24528247     A.U. after   15 cycles
 Normal termination of Gaussian 16 at Wed Sep 23 06:44:32 2020.
 Gaussian 16:  ES64L-G16RevB.01 20-Dec-2017

 ----------------------------------------------------------------------
 #p mp2/aug-cc-pVDZ scf=(MaxCycle=2000,NoVarAcc,NoIncFock) maxdisk=120G
 B geom=allcheck
 ----------------------------------------------------------------------

 Structure from the checkpoint file:  "SM45_m0.n.1.pdb.xyz.mst.n.w.chk"
 -------------------
 SM45_m0.n.1.pdb.xyz
 -------------------
 Charge =  0 Multiplicity = 1

                         Standard orientation:
 ---------------------------------------------------------------------
 Center     Atomic      Atomic             Coordinates (Angstroms)
 Number     Number       Type             X           Y           Z
 ---------------------------------------------------------------------
      1          8           0        2.065154   -1.485586    1.680714
      2         16           0        2.557507   -1.246560    0.315133
      3          7           0        1.380164   -1.656926   -0.851691
      4          6           0        0.021918   -1.506918   -0.515691
      5          7           0       -0.745281   -2.532184   -0.049796
      6          7           0       -1.962390   -2.095620    0.136020
      7          6           0       -0.759850   -0.376196   -0.616697
      8          7           0       -1.981637   -0.780983   -0.193249
      9          6           0       -3.181320   -0.019525   -0.083760
     10          6           0       -3.104959    1.358864    0.126972
     11          6           0       -4.283790    2.097460    0.219153
     12          6           0       -5.523631    1.463706    0.117010
     13          6           0       -5.584021    0.082873   -0.083727
     14          6           0       -4.414472   -0.667347   -0.192419
     15          6           0        2.739156    0.515109    0.099017
     16          6           0        2.336641    1.364842    1.128633
     17          6           0        2.501497    2.741293    0.965939
     18          6           0        3.061947    3.243215   -0.209578
     19          6           0        3.464023    2.376595   -1.230383
     20          6           0        3.305885    1.001034   -1.082615
     21          8           0        3.772687   -1.933931   -0.147168
     22          1           0        1.606864   -2.586207   -1.213561
     23          1           0       -0.552182    0.621550   -0.961773
     24          1           0       -2.141407    1.843899    0.230063
     25          1           0       -4.228989    3.168247    0.381145
     26          1           0       -6.437348    2.042503    0.193502
     27          1           0       -6.544063   -0.414391   -0.167263
     28          1           0       -4.445342   -1.735715   -0.363327
     29          1           0        1.909102    0.949885    2.032541
     30          1           0        2.193649    3.416041    1.756784
     31          1           0        3.188511    4.313205   -0.332475
     32          1           0        3.901883    2.771819   -2.139955
     33          1           0        3.616340    0.320224   -1.866295
 ---------------------------------------------------------------------

 SCF Done:  E(RHF) =  -1302.16409125     A.U. after   17 cycles
 E2 =    -0.3134120742D+01 EUMP2 =    -0.13052982119883D+04

 The electronic state is 1-A.
 Alpha  occ. eigenvalues --  -92.22997 -20.56179 -20.56153 -15.68929 -15.66259
 Alpha  occ. eigenvalues --  -15.62732 -15.62202 -11.31740 -11.31727 -11.30655
 Alpha  occ. eigenvalues --  -11.29587 -11.28285 -11.28125 -11.27913 -11.27223
 Alpha  occ. eigenvalues --  -11.27178 -11.27071 -11.26803 -11.26609 -11.26420
 Alpha  occ. eigenvalues --  -11.26196  -9.19806  -6.88330  -6.88284  -6.88190
 Alpha  occ. eigenvalues --   -1.46222  -1.45619  -1.33856  -1.27309  -1.23687
 Alpha  occ. eigenvalues --   -1.19212  -1.16819  -1.09073  -1.06674  -1.05300
 Alpha  occ. eigenvalues --   -1.04556  -1.03915  -0.93016  -0.90430  -0.87580
 Alpha  occ. eigenvalues --   -0.86389  -0.84096  -0.82368  -0.81562  -0.77299
 Alpha  occ. eigenvalues --   -0.74503  -0.71260  -0.71115  -0.69020  -0.68023
 Alpha  occ. eigenvalues --   -0.66975  -0.66786  -0.66320  -0.64665  -0.63650
 Alpha  occ. eigenvalues --   -0.62877  -0.62290  -0.61765  -0.61406  -0.55564
 Alpha  occ. eigenvalues --   -0.54845  -0.54310  -0.53802  -0.53419  -0.53007
 Alpha  occ. eigenvalues --   -0.52292  -0.51591  -0.50045  -0.48699  -0.46898
 Alpha  occ. eigenvalues --   -0.46682  -0.44864  -0.44048  -0.37885  -0.36832
 Alpha  occ. eigenvalues --   -0.36617  -0.36179  -0.33503
 Alpha virt. eigenvalues --    0.02039   0.02953   0.03347   0.04033   0.04266
 Alpha virt. eigenvalues --    0.04719   0.05421   0.05774   0.06273   0.06442
 Alpha virt. eigenvalues --    0.06542   0.07270   0.07630   0.08024   0.08641

 Mulliken charges:
               1
     1  O   -1.207643
     2  S    3.017665
     3  N   -1.058427
     4  C    1.014668
     5  N   -0.640475
     6  N   -0.406963
     7  C    0.840729
     8  N   -0.730868
     9  C    0.966685
    10  C    0.255263
    11  C    0.536044
    12  C    0.570598
    13  C    0.542302
    14  C    0.544609
    15  C    0.940666
    16  C    0.230742
    17  C    0.399993
    18  C    0.574130
    19  C    0.504479
    20  C   -0.088621
    21  O   -1.183915
    22  H   -0.043934
    23  H   -0.487934
    24  H   -0.647134
    25  H   -0.442550
    26  H   -0.446382
    27  H   -0.432326
    28  H   -0.539747
    29  H   -0.617939
    30  H   -0.472781
    31  H   -0.454956
    32  H   -0.448606
    33  H   -0.587373
 Sum of Mulliken charges =  -0.00000

 Dipole moment (field-independent basis, Debye):
    X=             -3.3303    Y=              7.9030    Z=             -3.1734  Tot=              9.1443
 Quadrupole moment (field-independent basis, Debye-Ang):
   XX=           -125.0791   YY=           -127.0848   ZZ=           -132.3197
   XY=             10.2655   XZ=             -6.7754   YZ=              8.1752

 Normal termination of Gaussian 16 at Wed Sep 23 07:25:31 2020.
