 Gaussian 16, Revision B.01,

 ----------------------------------------------------------------------
 #p b3lyp/6-31G(d) opt freq NoSymm scf=(MaxCycle=2000,NoVarAcc,NoIncFoc
 k) scrf=(iefpcm,read,solvent=water)
 ----------------------------------------------------------------------

 -------------------
 SM45_m1.a.8.pdb.xyz
 -------------------
 Symbolic Z-matrix:
 Charge = -1 Multiplicity = 1

 SCF Done:  E(RB3LYP) =  -1307.79819092     A.U. after   13 cycles
 SCF Done:  E(RB3LYP) =  -1307.79810596     A.U. after   10 cycles
 SCF Done:  E(RB3LYP) =  -1307.79800757     A.U. after   10 cycles
 SCF Done:  E(RB3LYP) =  -1307.79818421     A.U. after   10 cycles
 SCF Done:  E(RB3LYP) =  -1307.79819186     A.U. after    9 cycles
 SCF Done:  E(RB3LYP) =  -1307.79791422     A.U. after   12 cycles
 SCF Done:  E(RB3LYP) =  -1307.79796345     A.U. after    9 cycles
 SCF Done:  E(RB3LYP) =  -1307.79817977     A.U. after   12 cycles
 SCF Done:  E(RB3LYP) =  -1307.79819166     A.U. after    9 cycles
 SCF Done:  E(RB3LYP) =  -1307.79789186     A.U. after   13 cycles
 SCF Done:  E(RB3LYP) =  -1307.79795026     A.U. after   12 cycles
 SCF Done:  E(RB3LYP) =  -1307.79794039     A.U. after    7 cycles
 SCF Done:  E(RB3LYP) =  -1307.79817523     A.U. after   12 cycles
 SCF Done:  E(RB3LYP) =  -1307.79819231     A.U. after   10 cycles
 SCF Done:  E(RB3LYP) =  -1307.79794596     A.U. after   13 cycles
 SCF Done:  E(RB3LYP) =  -1307.79794508     A.U. after    7 cycles
 Optimization completed on the basis of negligible forces.
    -- Stationary point found.
 Normal termination of Gaussian 16 at Thu Sep 24 15:33:02 2020.

 --------------------------------------------------------------------
 #P Geom=AllCheck Guess=TCheck SCRF=Check GenChk RB3LYP/6-31G(d) Freq
 --------------------------------------------------------------------

 Structure from the checkpoint file:  "SM45_m1.a.8.pdb.xyz.mst.a.w.chk"
 -------------------
 SM45_m1.a.8.pdb.xyz
 -------------------
 Charge = -1 Multiplicity = 1

 SCF Done:  E(RB3LYP) =  -1307.79794508     A.U. after    1 cycles

  Exact polarizability: 331.917  -2.557 261.421  18.465  37.612 213.631
 Approx polarizability: 343.810  -3.118 322.612  20.315  60.280 262.096

                      1                      2                      3
                      A                      A                      A
 Frequencies --     15.3420                28.9794                39.8570
 Red. masses --      6.3365                 4.0759                 4.2209
 Frc consts  --      0.0009                 0.0020                 0.0040
 IR Inten    --      5.8861                 1.2555                 1.0980

                      4                      5                      6
                      A                      A                      A
 Frequencies --     57.8826                78.6873                85.0682
 Red. masses --      6.6052                 5.2215                 7.4631
 Frc consts  --      0.0130                 0.0190                 0.0318
 IR Inten    --      2.9844                 6.8212                 1.9814

                      7                      8                      9
                      A                      A                      A
 Frequencies --    123.0507               149.7798               184.0960
 Red. masses --      7.6516                 6.9360                 6.5969
 Frc consts  --      0.0683                 0.0917                 0.1317
 IR Inten    --      3.4880                 0.7229                 2.5125

                     10                     11                     12
                      A                      A                      A
 Frequencies --    224.8532               265.3867               285.9878
 Red. masses --      5.3432                 7.6697                 6.7074
 Frc consts  --      0.1592                 0.3183                 0.3232
 IR Inten    --      2.3116                13.7120                11.0280

                     13                     14                     15
                      A                      A                      A
 Frequencies --    303.7821               312.9255               372.6991
 Red. masses --      7.7671                 9.3803                 8.0146
 Frc consts  --      0.4223                 0.5412                 0.6559
 IR Inten    --      4.1529                 3.4733                 1.7393

                     16                     17                     18
                      A                      A                      A
 Frequencies --    407.0080               414.8256               419.6413
 Red. masses --      7.4638                 3.0471                 3.1699
 Frc consts  --      0.7285                 0.3089                 0.3289
 IR Inten    --      6.0727                 0.2735                 0.3476

                     19                     20                     21
                      A                      A                      A
 Frequencies --    439.7695               454.8332               498.2612
 Red. masses --      9.3051                 6.6210                 4.4621
 Frc consts  --      1.0603                 0.8070                 0.6527
 IR Inten    --      4.7380                33.1095                14.6014

                     22                     23                     24
                      A                      A                      A
 Frequencies --    530.2832               549.5524               588.5441
 Red. masses --      3.6368                12.8685                 7.0356
 Frc consts  --      0.6025                 2.2898                 1.4358
 IR Inten    --     29.3408               170.8728               212.4879

                     25                     26                     27
                      A                      A                      A
 Frequencies --    628.2006               628.9276               668.4112
 Red. masses --      6.4418                 6.4375                 2.9552
 Frc consts  --      1.4978                 1.5003                 0.7779
 IR Inten    --      0.1181                 0.3384                 7.9165

                     28                     29                     30
                      A                      A                      A
 Frequencies --    690.3715               694.0245               703.0036
 Red. masses --      3.0192                 4.8341                 2.5529
 Frc consts  --      0.8478                 1.3719                 0.7434
 IR Inten    --     10.0976                 7.6956                50.1547

                     31                     32                     33
                      A                      A                      A
 Frequencies --    706.0071               708.9564               737.8732
 Red. masses --      2.3436                 6.8096                 3.2895
 Frc consts  --      0.6883                 2.0166                 1.0552
 IR Inten    --     20.1418                28.3485               109.2810

                     34                     35                     36
                      A                      A                      A
 Frequencies --    749.0820               762.0979               777.9142
 Red. masses --      8.1292                 1.5060                 1.6348
 Frc consts  --      2.6875                 0.5153                 0.5829
 IR Inten    --    161.3651                28.7628                64.7006

                     37                     38                     39
                      A                      A                      A
 Frequencies --    855.2251               861.2746               931.7085
 Red. masses --      1.2501                 1.2470                 3.6889
 Frc consts  --      0.5387                 0.5450                 1.8867
 IR Inten    --      0.2614                 0.2240               138.3068

                     40                     41                     42
                      A                      A                      A
 Frequencies --    934.0529               936.2560               981.7567
 Red. masses --      1.3932                 1.7247                 1.3411
 Frc consts  --      0.7162                 0.8907                 0.7616
 IR Inten    --      7.2976                51.2195                 0.2822

                     43                     44                     45
                      A                      A                      A
 Frequencies --    983.5637               998.6257              1008.2332
 Red. masses --      1.3516                 7.5229                 1.2592
 Frc consts  --      0.7704                 4.4202                 0.7542
 IR Inten    --      0.3386                53.0040                 0.5104

                     46                     47                     48
                      A                      A                      A
 Frequencies --   1010.9633              1015.0966              1018.1705
 Red. masses --      1.2603                 6.4998                 5.9766
 Frc consts  --      0.7589                 3.9461                 3.6505
 IR Inten    --      0.0467                 8.2732                 1.9103

                     49                     50                     51
                      A                      A                      A
 Frequencies --   1046.2254              1052.2869              1057.2452
 Red. masses --      4.5591                 2.6569                 2.9130
 Frc consts  --      2.9402                 1.7334                 1.9184
 IR Inten    --     74.2386                 1.1042                38.4412

                     52                     53                     54
                      A                      A                      A
 Frequencies --   1068.0254              1089.9296              1104.2756
 Red. masses --      2.3529                 4.4093                 1.5624
 Frc consts  --      1.5813                 3.0861                 1.1225
 IR Inten    --    296.7103               306.6683                18.6954

                     55                     56                     57
                      A                      A                      A
 Frequencies --   1113.2168              1121.2476              1189.2450
 Red. masses --      1.6884                 3.4594                 1.1000
 Frc consts  --      1.2328                 2.5624                 0.9167
 IR Inten    --     29.1324               191.4571                 0.0863

                     58                     59                     60
                      A                      A                      A
 Frequencies --   1189.8966              1200.6453              1204.3377
 Red. masses --      1.0982                 1.4933                 2.1911
 Frc consts  --      0.9161                 1.2683                 1.8725
 IR Inten    --      0.5203                85.2470               203.8792

                     61                     62                     63
                      A                      A                      A
 Frequencies --   1205.7626              1236.9750              1248.3415
 Red. masses --      1.5822                 4.2251                 5.2554
 Frc consts  --      1.3553                 3.8089                 4.8253
 IR Inten    --     95.0122                45.4626                 8.3128

                     64                     65                     66
                      A                      A                      A
 Frequencies --   1282.2227              1336.8216              1340.3319
 Red. masses --      2.9536                 1.8503                 2.3642
 Frc consts  --      2.8610                 1.9482                 2.5024
 IR Inten    --    257.0722                58.9686                96.0346

                     67                     68                     69
                      A                      A                      A
 Frequencies --   1360.5268              1368.9563              1381.1313
 Red. masses --      5.1670                 2.5524                 3.5695
 Frc consts  --      5.6351                 2.8182                 4.0117
 IR Inten    --      2.4076                 0.4861               425.5698

                     70                     71                     72
                      A                      A                      A
 Frequencies --   1454.0246              1488.9114              1513.8607
 Red. masses --      4.5229                 2.1512                 2.5052
 Frc consts  --      5.6339                 2.8098                 3.3828
 IR Inten    --    212.7110                17.9929                24.9545

                     73                     74                     75
                      A                      A                      A
 Frequencies --   1524.9228              1547.5405              1584.5673
 Red. masses --      2.0878                 2.6686                 6.6419
 Frc consts  --      2.8605                 3.7654                 9.8257
 IR Inten    --      6.9898               388.9957               434.5518

                     76                     77                     78
                      A                      A                      A
 Frequencies --   1642.4061              1646.3530              1653.3351
 Red. masses --      5.8697                 5.5346                 6.3000
 Frc consts  --      9.3289                 8.8387                10.1465
 IR Inten    --      0.3479                 0.0803                 6.4181

                     79                     80                     81
                      A                      A                      A
 Frequencies --   1660.1055              3206.7099              3210.9233
 Red. masses --      5.6927                 1.0857                 1.0861
 Frc consts  --      9.2436                 6.5780                 6.5973
 IR Inten    --     45.7297                 0.1971                 0.2930

                     82                     83                     84
                      A                      A                      A
 Frequencies --   3215.7155              3219.8110              3223.8898
 Red. masses --      1.0887                 1.0900                 1.0928
 Frc consts  --      6.6331                 6.6579                 6.6917
 IR Inten    --     15.2404                22.1169                35.3271

                     85                     86                     87
                      A                      A                      A
 Frequencies --   3229.9087              3231.5233              3241.1705
 Red. masses --      1.0944                 1.0964                 1.0947
 Frc consts  --      6.7269                 6.7457                 6.7755
 IR Inten    --     47.4359                31.2067                11.6127

                     88                     89                     90
                      A                      A                      A
 Frequencies --   3246.5671              3258.7836              3335.1321
 Red. masses --      1.0923                 1.0926                 1.0983
 Frc consts  --      6.7832                 6.8364                 7.1977
 IR Inten    --      8.5890                 2.2983                 6.2011

 - Thermochemistry -
 -------------------
 Temperature   298.150 Kelvin.  Pressure   1.00000 Atm.
 Atom     1 has atomic number  8 and mass  15.99491

 Molecular mass:   299.06027 amu.
 Principal axes and moments of inertia in atomic units:
                           1         2         3
     Eigenvalues --  2863.07820********************
           X            0.99524   0.07594  -0.06110
           Y           -0.03899   0.88471   0.46451
           Z            0.08933  -0.45992   0.88346
 This molecule is an asymmetric top.
 Rotational symmetry number  1.
 Warning -- assumption of classical behavior for rotation
           may cause significant error
 Rotational temperatures (Kelvin)      0.03025     0.00641     0.00596
 Rotational constants (GHZ):           0.63035     0.13361     0.12420
 Zero-point vibrational energy     618198.4 (Joules/Mol)
                                  147.75296 (Kcal/Mol)
 Warning -- explicit consideration of  24 degrees of freedom as
           vibrations may cause significant error
 Vibrational temperatures:     22.07    41.69    57.35    83.28   113.21
          (Kelvin)            122.39   177.04   215.50   264.87   323.51
                              381.83   411.47   437.07   450.23   536.23
                              585.59   596.84   603.77   632.73   654.40
                              716.89   762.96   790.68   846.78   903.84
                              904.89   961.69   993.29   998.55  1011.47
                             1015.79  1020.03  1061.63  1077.76  1096.49
                             1119.25  1230.48  1239.18  1340.52  1343.89
                             1347.06  1412.53  1415.13  1436.80  1450.62
                             1454.55  1460.50  1464.92  1505.29  1514.01
                             1521.14  1536.65  1568.17  1588.81  1601.67
                             1613.23  1711.06  1712.00  1727.46  1732.77
                             1734.82  1779.73  1796.09  1844.83  1923.39
                             1928.44  1957.49  1969.62  1987.14  2092.02
                             2142.21  2178.11  2194.02  2226.57  2279.84
                             2363.06  2368.73  2378.78  2388.52  4613.74
                             4619.80  4626.70  4632.59  4638.46  4647.12
                             4649.44  4663.32  4671.09  4688.66  4798.51

 Zero-point correction=                           0.235459 (Hartree/Particle)
 Thermal correction to Energy=                    0.252299
 Thermal correction to Enthalpy=                  0.253243
 Thermal correction to Gibbs Free Energy=         0.187793
 Sum of electronic and zero-point Energies=          -1307.562486
 Sum of electronic and thermal Energies=             -1307.545646
 Sum of electronic and thermal Enthalpies=           -1307.544702
 Sum of electronic and thermal Free Energies=        -1307.610152

                     E (Thermal)             CV                S
                      KCal/Mol        Cal/Mol-Kelvin    Cal/Mol-Kelvin
 Total                  158.320             65.395            137.751
 Electronic               0.000              0.000              0.000
 Translational            0.889              2.981             42.983
 Rotational               0.889              2.981             34.684
 Vibrational            156.542             59.434             60.083
 Vibration     1          0.593              1.986              7.161
 Vibration     2          0.593              1.984              5.898
 Vibration     3          0.594              1.981              5.266
 Vibration     4          0.596              1.974              4.528
 Vibration     5          0.600              1.963              3.923
 Vibration     6          0.601              1.960              3.770
 Vibration     7          0.610              1.930              3.052
 Vibration     8          0.618              1.903              2.675
 Vibration     9          0.631              1.862              2.286
 Vibration    10          0.650              1.803              1.920
 Vibration    11          0.671              1.737              1.626
 Vibration    12          0.684              1.700              1.498
 Vibration    13          0.695              1.667              1.396
 Vibration    14          0.701              1.649              1.347
 Vibration    15          0.744              1.528              1.069
 Vibration    16          0.772              1.455              0.937
 Vibration    17          0.778              1.438              0.910
 Vibration    18          0.782              1.428              0.893
 Vibration    19          0.800              1.383              0.827
 Vibration    20          0.813              1.350              0.781
 Vibration    21          0.854              1.254              0.662
 Vibration    22          0.885              1.183              0.587
 Vibration    23          0.905              1.141              0.545
 Vibration    24          0.946              1.056              0.470

 Optimization completed.
    -- Stationary point found.
 Normal termination of Gaussian 16 at Thu Sep 24 15:43:39 2020.

 ----------------------------------------------------------------------
 #p b3lyp/6-31G(d) scrf=(iefpcm,read,solvent=water) geom=allcheck guess
 =read
 ----------------------------------------------------------------------

 Structure from the checkpoint file:  "SM45_m1.a.8.pdb.xyz.mst.a.w.chk"
 -------------------
 SM45_m1.a.8.pdb.xyz
 -------------------
 Charge = -1 Multiplicity = 1

 SCF Done:  E(RB3LYP) =  -1307.79795876     A.U. after    7 cycles
 Normal termination of Gaussian 16 at Thu Sep 24 15:44:17 2020.

 -----------------------------
 #p B3LYP/6-31G* geom=allcheck
 -----------------------------

 Structure from the checkpoint file:  "SM45_m1.a.8.pdb.xyz.mst.a.w.chk"
 -------------------
 SM45_m1.a.8.pdb.xyz
 -------------------
 Charge = -1 Multiplicity = 1

 SCF Done:  E(RB3LYP) =  -1307.69463203     A.U. after   15 cycles

 The electronic state is 1-A.
 Alpha  occ. eigenvalues --  -88.92978 -18.95393 -18.95128 -14.30677 -14.25790
 Alpha  occ. eigenvalues --  -14.21254 -14.14623 -10.15220 -10.11809 -10.11595
 Alpha  occ. eigenvalues --  -10.11337 -10.11305 -10.10814 -10.10551 -10.08547
 Alpha  occ. eigenvalues --  -10.08462 -10.08264 -10.08124 -10.08033 -10.07773
 Alpha  occ. eigenvalues --  -10.07308  -7.95330  -5.91798  -5.91750  -5.91715
 Alpha  occ. eigenvalues --   -0.96615  -0.91653  -0.80981  -0.80034  -0.76154
 Alpha  occ. eigenvalues --   -0.74105  -0.73398  -0.67366  -0.66416  -0.64579
 Alpha  occ. eigenvalues --   -0.63336  -0.63311  -0.54954  -0.53804  -0.51573
 Alpha  occ. eigenvalues --   -0.49201  -0.48198  -0.47989  -0.45472  -0.42986
 Alpha  occ. eigenvalues --   -0.41175  -0.38852  -0.37374  -0.36996  -0.35405
 Alpha  occ. eigenvalues --   -0.34829  -0.34299  -0.33669  -0.33094  -0.32518
 Alpha  occ. eigenvalues --   -0.31037  -0.30232  -0.28651  -0.28454  -0.27202
 Alpha  occ. eigenvalues --   -0.26872  -0.25331  -0.24934  -0.23216  -0.21325
 Alpha  occ. eigenvalues --   -0.20899  -0.17634  -0.17074  -0.16141  -0.15388
 Alpha  occ. eigenvalues --   -0.14630  -0.14022  -0.13863  -0.13102  -0.11813
 Alpha  occ. eigenvalues --   -0.11569  -0.08916  -0.04969
 Alpha virt. eigenvalues --    0.06790   0.07496   0.10353   0.11326   0.14051
 Alpha virt. eigenvalues --    0.16482   0.19364   0.20449   0.20907   0.22622
 Alpha virt. eigenvalues --    0.24058   0.24591   0.24764   0.25123   0.25704

 Mulliken charges:
               1
     1  O   -0.606182
     2  S    1.141190
     3  N   -0.691569
     4  C    0.431198
     5  N   -0.354460
     6  N   -0.119224
     7  C   -0.042752
     8  N   -0.360280
     9  C    0.340611
    10  C   -0.168007
    11  C   -0.144183
    12  C   -0.129002
    13  C   -0.143613
    14  C   -0.151030
    15  C   -0.130368
    16  C   -0.133276
    17  C   -0.128897
    18  C   -0.130661
    19  C   -0.132318
    20  C   -0.138943
    21  O   -0.600518
    22  H    0.135743
    23  H    0.140110
    24  H    0.114081
    25  H    0.105795
    26  H    0.115657
    27  H    0.168101
    28  H    0.166820
    29  H    0.101808
    30  H    0.094236
    31  H    0.098629
    32  H    0.151304
 Sum of Mulliken charges =  -1.00000

 Dipole moment (field-independent basis, Debye):
    X=              8.5197    Y=              6.2533    Z=              2.7832  Tot=             10.9286
 Quadrupole moment (field-independent basis, Debye-Ang):
   XX=           -160.0520   YY=           -148.2287   ZZ=           -131.0337
   XY=            -21.4994   XZ=             -0.3248   YZ=             -3.2906

 Normal termination of Gaussian 16 at Thu Sep 24 15:45:05 2020.
 Gaussian 16:  ES64L-G16RevB.01 20-Dec-2017

 ----------------------------------------------------------------------
 #p mp2/aug-cc-pVDZ scf=(MaxCycle=2000,NoVarAcc,NoIncFock) maxdisk=120G
 B geom=allcheck
 ----------------------------------------------------------------------

 Structure from the checkpoint file:  "SM45_m1.a.8.pdb.xyz.mst.a.w.chk"
 -------------------
 SM45_m1.a.8.pdb.xyz
 -------------------
 Charge = -1 Multiplicity = 1

                         Standard orientation:
 ---------------------------------------------------------------------
 Center     Atomic      Atomic             Coordinates (Angstroms)
 Number     Number       Type             X           Y           Z
 ---------------------------------------------------------------------
      1          8           0       -2.384794   -1.641987   -1.693238
      2         16           0       -2.424740   -1.469313   -0.213973
      3          7           0       -1.017907   -1.605836    0.528011
      4          6           0        0.089679   -0.918110    0.084676
      5          7           0        0.150680    0.032469   -0.909805
      6          7           0        1.384305    0.475822   -1.020538
      7          6           0        1.372868   -1.053117    0.601486
      8          7           0        2.134652   -0.176171   -0.111480
      9          6           0        3.523872    0.098130    0.014694
     10          6           0        4.201750   -0.267835    1.181083
     11          6           0        5.565933   -0.001096    1.291743
     12          6           0        6.249007    0.635951    0.254501
     13          6           0        5.558733    1.003023   -0.903177
     14          6           0        4.199061    0.731860   -1.032665
     15          6           0       -3.071122    0.193439    0.062959
     16          6           0       -3.229647    1.071527   -1.008014
     17          6           0       -3.725046    2.356113   -0.776783
     18          6           0       -4.056059    2.756165    0.518391
     19          6           0       -3.894787    1.869847    1.587560
     20          6           0       -3.401812    0.585723    1.363468
     21          8           0       -3.358370   -2.379237    0.499832
     22          1           0        1.774795   -1.692589    1.367196
     23          1           0        3.670334   -0.744300    1.995941
     24          1           0        6.090346   -0.287173    2.196926
     25          1           0        7.309368    0.844363    0.346934
     26          1           0        6.081112    1.495899   -1.715869
     27          1           0        3.655702    1.000606   -1.928691
     28          1           0       -2.970155    0.740466   -2.005984
     29          1           0       -3.851876    3.041600   -1.608009
     30          1           0       -4.440159    3.755003    0.696593
     31          1           0       -4.155170    2.178421    2.594451
     32          1           0       -3.279855   -0.107204    2.188486
 ---------------------------------------------------------------------

 SCF Done:  E(RHF) =  -1301.61191039     A.U. after   17 cycles
