 Gaussian 16, Revision B.01,

 ----------------------------------------------------------------------
 #p b3lyp/6-31G(d) opt freq NoSymm scf=(MaxCycle=2000,NoVarAcc,NoIncFoc
 k) scrf=(iefpcm,read,solvent=water)
 ----------------------------------------------------------------------

 -------------------
 SM45_m0.n.4.pdb.xyz
 -------------------
 Symbolic Z-matrix:
 Charge =  0 Multiplicity = 1

 SCF Done:  E(RB3LYP) =  -1308.26958920     A.U. after   13 cycles
 SCF Done:  E(RB3LYP) =  -1308.26957876     A.U. after   10 cycles
 SCF Done:  E(RB3LYP) =  -1308.26958961     A.U. after    9 cycles
 SCF Done:  E(RB3LYP) =  -1308.26958031     A.U. after    9 cycles
 SCF Done:  E(RB3LYP) =  -1308.26954878     A.U. after    9 cycles
 SCF Done:  E(RB3LYP) =  -1308.26954470     A.U. after    8 cycles
 SCF Done:  E(RB3LYP) =  -1308.26953499     A.U. after    8 cycles
 SCF Done:  E(RB3LYP) =  -1308.26951870     A.U. after    8 cycles
 SCF Done:  E(RB3LYP) =  -1308.26947155     A.U. after    9 cycles
 SCF Done:  E(RB3LYP) =  -1308.26937690     A.U. after   10 cycles
 SCF Done:  E(RB3LYP) =  -1308.26957032     A.U. after    8 cycles
 SCF Done:  E(RB3LYP) =  -1308.26956594     A.U. after    7 cycles
 SCF Done:  E(RB3LYP) =  -1308.26956327     A.U. after    7 cycles
 SCF Done:  E(RB3LYP) =  -1308.26956158     A.U. after    7 cycles
 SCF Done:  E(RB3LYP) =  -1308.26956048     A.U. after    6 cycles
 SCF Done:  E(RB3LYP) =  -1308.26955975     A.U. after    6 cycles
 Optimization completed.
    -- Stationary point found.
 Normal termination of Gaussian 16 at Wed Sep 23 06:26:58 2020.

 --------------------------------------------------------------------
 #P Geom=AllCheck Guess=TCheck SCRF=Check GenChk RB3LYP/6-31G(d) Freq
 --------------------------------------------------------------------

 Structure from the checkpoint file:  "SM45_m0.n.4.pdb.xyz.mst.n.w.chk"
 -------------------
 SM45_m0.n.4.pdb.xyz
 -------------------
 Charge =  0 Multiplicity = 1

 SCF Done:  E(RB3LYP) =  -1308.26955975     A.U. after    1 cycles

  Exact polarizability: 381.391   4.568 252.410 -17.279  36.539 140.195
 Approx polarizability: 403.292  -0.399 314.112 -22.665  50.161 175.932

                      1                      2                      3
                      A                      A                      A
 Frequencies --     18.3480                25.4336                28.8218
 Red. masses --      6.4576                 4.6594                 4.1955
 Frc consts  --      0.0013                 0.0018                 0.0021
 IR Inten    --      3.8186                 3.4889                 1.0063

                      4                      5                      6
                      A                      A                      A
 Frequencies --     36.2330                75.2589                84.0789
 Red. masses --      5.6265                 5.7483                 6.8453
 Frc consts  --      0.0044                 0.0192                 0.0285
 IR Inten    --      5.6022                 9.3995                 3.8066

                      7                      8                      9
                      A                      A                      A
 Frequencies --    112.5688               127.6952               171.0277
 Red. masses --      7.5765                 5.1356                 5.4007
 Frc consts  --      0.0566                 0.0493                 0.0931
 IR Inten    --      1.2952                 5.8566                 6.6331

                     10                     11                     12
                      A                      A                      A
 Frequencies --    226.8481               248.8580               270.2093
 Red. masses --      5.5529                 5.0804                 5.9809
 Frc consts  --      0.1684                 0.1854                 0.2573
 IR Inten    --      3.2164                 2.1281                13.9915

                     13                     14                     15
                      A                      A                      A
 Frequencies --    306.8951               314.3243               344.0084
 Red. masses --      8.0759                 7.9169                 2.0687
 Frc consts  --      0.4481                 0.4609                 0.1442
 IR Inten    --     10.0972                 4.2140                71.8811

                     16                     17                     18
                      A                      A                      A
 Frequencies --    376.1470               388.7563               412.3899
 Red. masses --      3.8666                 8.0281                 2.9903
 Frc consts  --      0.3223                 0.7149                 0.2996
 IR Inten    --     39.3797                10.7768                 1.9947

                     19                     20                     21
                      A                      A                      A
 Frequencies --    418.3592               421.2999               467.7889
 Red. masses --      3.2668                 6.4067                 5.2135
 Frc consts  --      0.3369                 0.6700                 0.6722
 IR Inten    --      2.2842                14.9714                18.3875

                     22                     23                     24
                      A                      A                      A
 Frequencies --    498.2082               534.4897               551.3225
 Red. masses --      4.6685                 4.0094                 8.6211
 Frc consts  --      0.6827                 0.6748                 1.5439
 IR Inten    --      9.2645                57.0993               126.6405

                     25                     26                     27
                      A                      A                      A
 Frequencies --    567.5726               626.0170               627.6230
 Red. masses --      8.0159                 6.4388                 6.3886
 Frc consts  --      1.5214                 1.4867                 1.4827
 IR Inten    --    235.1275                 0.7274                 2.0124

                     28                     29                     30
                      A                      A                      A
 Frequencies --    663.0159               696.4342               699.5337
 Red. masses --      3.4402                 5.8940                 2.6624
 Frc consts  --      0.8910                 1.6843                 0.7676
 IR Inten    --      9.3666                22.4408                34.0475

                     31                     32                     33
                      A                      A                      A
 Frequencies --    705.0040               711.2849               726.1783
 Red. masses --      2.4276                 7.0065                 5.9766
 Frc consts  --      0.7109                 2.0885                 1.8569
 IR Inten    --     34.4358                 1.4920                66.3568

                     34                     35                     36
                      A                      A                      A
 Frequencies --    766.9162               776.9194               780.3955
 Red. masses --      1.4524                 1.5633                 1.7503
 Frc consts  --      0.5033                 0.5560                 0.6281
 IR Inten    --     27.7426               128.8238                10.5891

                     37                     38                     39
                      A                      A                      A
 Frequencies --    820.8861               853.8180               855.1309
 Red. masses --      3.7818                 1.9578                 2.0187
 Frc consts  --      1.5015                 0.8409                 0.8697
 IR Inten    --     20.8467               171.0988               153.0274

                     40                     41                     42
                      A                      A                      A
 Frequencies --    869.2438               936.8236               956.6539
 Red. masses --      1.2460                 1.3915                 1.3180
 Frc consts  --      0.5547                 0.7195                 0.7107
 IR Inten    --      4.2883                 6.6814                 3.2688

                     43                     44                     45
                      A                      A                      A
 Frequencies --    982.7701               994.6479              1006.8249
 Red. masses --      1.3448                 1.3566                 7.6737
 Frc consts  --      0.7652                 0.7908                 4.5831
 IR Inten    --      0.2784                 0.7786                26.3064

                     46                     47                     48
                      A                      A                      A
 Frequencies --   1010.4075              1013.3542              1020.2776
 Red. masses --      1.2682                 5.4820                 5.9959
 Frc consts  --      0.7628                 3.3167                 3.6774
 IR Inten    --      0.3701                 6.4260                 0.6162

                     49                     50                     51
                      A                      A                      A
 Frequencies --   1020.6917              1048.9258              1049.7491
 Red. masses --      1.3203                 2.8422                 3.2159
 Frc consts  --      0.8104                 1.8424                 2.0880
 IR Inten    --      0.2423                 0.9270                14.3088

                     52                     53                     54
                      A                      A                      A
 Frequencies --   1067.0455              1067.9194              1083.3615
 Red. masses --      2.2062                 4.3106                 3.7527
 Frc consts  --      1.4800                 2.8964                 2.5950
 IR Inten    --     58.4720                95.4912               132.1187

                     55                     56                     57
                      A                      A                      A
 Frequencies --   1107.7773              1112.7883              1132.6534
 Red. masses --      1.5410                 1.5872                 4.9288
 Frc consts  --      1.1142                 1.1580                 3.7255
 IR Inten    --     13.5124                 5.7114               247.8641

                     58                     59                     60
                      A                      A                      A
 Frequencies --   1187.9810              1193.7366              1197.2618
 Red. masses --      1.0981                 1.0964                 1.1636
 Frc consts  --      0.9131                 0.9206                 0.9827
 IR Inten    --      0.0871                 0.1516                 0.1034

                     61                     62                     63
                      A                      A                      A
 Frequencies --   1211.3544              1231.8587              1234.4810
 Red. masses --      1.1619                 2.2562                 3.4722
 Frc consts  --      1.0046                 2.0172                 3.1176
 IR Inten    --      7.4290                16.8552                 0.5563

                     64                     65                     66
                      A                      A                      A
 Frequencies --   1282.4344              1299.8955              1342.4453
 Red. masses --      7.9046                 9.8533                 2.3903
 Frc consts  --      7.6595                 9.8096                 2.5380
 IR Inten    --    247.8887               192.1299                59.5043

                     67                     68                     69
                      A                      A                      A
 Frequencies --   1349.2618              1364.9432              1366.1451
 Red. masses --      1.7158                 2.5888                 3.2416
 Frc consts  --      1.8404                 2.8417                 3.5646
 IR Inten    --      3.3579                 3.2075                 4.0245

                     70                     71                     72
                      A                      A                      A
 Frequencies --   1381.0717              1422.1125              1484.0526
 Red. masses --      2.8478                 2.4239                 2.6230
 Frc consts  --      3.2003                 2.8882                 3.4036
 IR Inten    --    121.1847                71.0741                11.5824

                     73                     74                     75
                      A                      A                      A
 Frequencies --   1493.7159              1513.9095              1527.2086
 Red. masses --      2.1885                 2.6009                 2.0195
 Frc consts  --      2.8770                 3.5122                 2.7752
 IR Inten    --     32.4157                17.2374                11.5060

                     76                     77                     78
                      A                      A                      A
 Frequencies --   1549.5929              1604.4162              1644.3411
 Red. masses --      2.7993                 6.5575                 5.7272
 Frc consts  --      3.9604                 9.9454                 9.1238
 IR Inten    --    136.9366               165.2624                 1.3955

                     79                     80                     81
                      A                      A                      A
 Frequencies --   1645.3001              1654.7041              1657.7301
 Red. masses --      5.4701                 6.4037                 5.7633
 Frc consts  --      8.7243                10.3305                 9.3315
 IR Inten    --      0.7834                 7.2133                30.6086

                     82                     83                     84
                      A                      A                      A
 Frequencies --   3212.5568              3214.4210              3220.4814
 Red. masses --      1.0863                 1.0870                 1.0906
 Frc consts  --      6.6053                 6.6174                 6.6644
 IR Inten    --      0.1598                 9.9579                13.8772

                     85                     86                     87
                      A                      A                      A
 Frequencies --   3221.1136              3229.0046              3230.2099
 Red. masses --      1.0899                 1.0924                 1.0938
 Frc consts  --      6.6629                 6.7107                 6.7246
 IR Inten    --     17.4266                12.5293                41.5111

                     88                     89                     90
                      A                      A                      A
 Frequencies --   3236.0802              3238.8324              3250.6571
 Red. masses --      1.0963                 1.0958                 1.0935
 Frc consts  --      6.7641                 6.7728                 6.8080
 IR Inten    --     35.5916                12.4486                 8.0712

                     91                     92                     93
                      A                      A                      A
 Frequencies --   3253.6042              3338.5065              3521.8665
 Red. masses --      1.0933                 1.1005                 1.0768
 Frc consts  --      6.8192                 7.2265                 7.8693
 IR Inten    --      2.5518                 8.5339               195.1894

 - Thermochemistry -
 -------------------
 Temperature   298.150 Kelvin.  Pressure   1.00000 Atm.
 Atom     1 has atomic number  8 and mass  15.99491

 Molecular mass:   300.06810 amu.
 Principal axes and moments of inertia in atomic units:
                           1         2         3
     Eigenvalues --  1977.64865********************
           X            0.99999   0.00459  -0.00156
           Y           -0.00458   0.99994   0.00986
           Z            0.00161  -0.00986   0.99995
 This molecule is an asymmetric top.
 Rotational symmetry number  1.
 Warning -- assumption of classical behavior for rotation
           may cause significant error
 Rotational temperatures (Kelvin)      0.04380     0.00564     0.00525
 Rotational constants (GHZ):           0.91257     0.11742     0.10933
 Zero-point vibrational energy     650919.9 (Joules/Mol)
                                  155.57358 (Kcal/Mol)
 Warning -- explicit consideration of  25 degrees of freedom as
           vibrations may cause significant error
 Vibrational temperatures:     26.40    36.59    41.47    52.13   108.28
          (Kelvin)            120.97   161.96   183.72   246.07   326.38
                              358.05   388.77   441.55   452.24   494.95
                              541.19   559.33   593.34   601.93   606.16
                              673.04   716.81   769.01   793.23   816.61
                              900.70   903.01   953.93  1002.01  1006.47
                             1014.34  1023.38  1044.81  1103.42  1117.81
                             1122.82  1181.07  1228.45  1230.34  1250.65
                             1347.88  1376.41  1413.99  1431.08  1448.60
                             1453.75  1457.99  1467.95  1468.55  1509.17
                             1510.35  1535.24  1536.50  1558.72  1593.84
                             1601.05  1629.64  1709.24  1717.52  1722.59
                             1742.87  1772.37  1776.14  1845.14  1870.26
                             1931.48  1941.29  1963.85  1965.58  1987.05
                             2046.10  2135.22  2149.12  2178.18  2197.31
                             2229.52  2308.40  2365.84  2367.22  2380.75
                             2385.10  4622.15  4624.83  4633.55  4634.46
                             4645.82  4647.55  4656.00  4659.96  4676.97
                             4681.21  4803.37  5067.18

 Zero-point correction=                           0.247922 (Hartree/Particle)
 Thermal correction to Energy=                    0.265314
 Thermal correction to Enthalpy=                  0.266258
 Thermal correction to Gibbs Free Energy=         0.199167
 Sum of electronic and zero-point Energies=          -1308.021637
 Sum of electronic and thermal Energies=             -1308.004246
 Sum of electronic and thermal Enthalpies=           -1308.003302
 Sum of electronic and thermal Free Energies=        -1308.070393

                     E (Thermal)             CV                S
                      KCal/Mol        Cal/Mol-Kelvin    Cal/Mol-Kelvin
 Total                  166.487             66.968            141.205
 Electronic               0.000              0.000              0.000
 Translational            0.889              2.981             42.993
 Rotational               0.889              2.981             34.572
 Vibrational            164.709             61.006             63.639
 Vibration     1          0.593              1.986              6.805
 Vibration     2          0.593              1.985              6.157
 Vibration     3          0.593              1.984              5.909
 Vibration     4          0.594              1.982              5.455
 Vibration     5          0.599              1.966              4.011
 Vibration     6          0.601              1.960              3.793
 Vibration     7          0.607              1.939              3.224
 Vibration     8          0.611              1.925              2.980
 Vibration     9          0.626              1.878              2.424
 Vibration    10          0.651              1.800              1.904
 Vibration    11          0.662              1.765              1.739
 Vibration    12          0.674              1.728              1.595
 Vibration    13          0.697              1.661              1.379
 Vibration    14          0.702              1.646              1.339
 Vibration    15          0.723              1.587              1.193
 Vibration    16          0.747              1.521              1.055
 Vibration    17          0.757              1.494              1.005
 Vibration    18          0.776              1.443              0.918
 Vibration    19          0.781              1.430              0.898
 Vibration    20          0.784              1.424              0.888
 Vibration    21          0.825              1.322              0.744
 Vibration    22          0.854              1.254              0.663
 Vibration    23          0.889              1.174              0.577
 Vibration    24          0.907              1.137              0.541
 Vibration    25          0.924              1.101              0.509

                           ! Non-Optimized Parameters !
 Normal termination of Gaussian 16 at Wed Sep 23 06:37:26 2020.

 ----------------------------------------------------------------------
 #p b3lyp/6-31G(d) scrf=(iefpcm,read,solvent=water) geom=allcheck guess
 =read
 ----------------------------------------------------------------------

 Structure from the checkpoint file:  "SM45_m0.n.4.pdb.xyz.mst.n.w.chk"
 -------------------
 SM45_m0.n.4.pdb.xyz
 -------------------
 Charge =  0 Multiplicity = 1

 SCF Done:  E(RB3LYP) =  -1308.26956655     A.U. after    6 cycles
 Normal termination of Gaussian 16 at Wed Sep 23 06:37:59 2020.

 -----------------------------
 #p B3LYP/6-31G* geom=allcheck
 -----------------------------

 Structure from the checkpoint file:  "SM45_m0.n.4.pdb.xyz.mst.n.w.chk"
 -------------------
 SM45_m0.n.4.pdb.xyz
 -------------------
 Charge =  0 Multiplicity = 1

 SCF Done:  E(RB3LYP) =  -1308.24486426     A.U. after   15 cycles
 Normal termination of Gaussian 16 at Wed Sep 23 06:38:45 2020.
 Gaussian 16:  ES64L-G16RevB.01 20-Dec-2017

 ----------------------------------------------------------------------
 #p mp2/aug-cc-pVDZ scf=(MaxCycle=2000,NoVarAcc,NoIncFock) maxdisk=120G
 B geom=allcheck
 ----------------------------------------------------------------------

 Structure from the checkpoint file:  "SM45_m0.n.4.pdb.xyz.mst.n.w.chk"
 -------------------
 SM45_m0.n.4.pdb.xyz
 -------------------
 Charge =  0 Multiplicity = 1

                         Standard orientation:
 ---------------------------------------------------------------------
 Center     Atomic      Atomic             Coordinates (Angstroms)
 Number     Number       Type             X           Y           Z
 ---------------------------------------------------------------------
      1          8           0        1.532797   -0.843134    1.757166
      2         16           0        2.127772   -1.203719    0.462594
      3          7           0        0.951518   -0.998704   -0.746385
      4          6           0       -0.273784   -0.383891   -0.452728
      5          7           0       -0.352418    0.932832   -0.117691
      6          7           0       -1.608942    1.250353    0.058992
      7          6           0       -1.547992   -0.908777   -0.492635
      8          7           0       -2.347176    0.144082   -0.183431
      9          6           0       -3.768684    0.186270   -0.097334
     10          6           0       -4.532912   -0.710266   -0.847483
     11          6           0       -5.922675   -0.666810   -0.747085
     12          6           0       -6.541779    0.270805    0.081809
     13          6           0       -5.764219    1.167020    0.819149
     14          6           0       -4.373674    1.125978    0.739810
     15          6           0        3.387198   -0.004371    0.058197
     16          6           0        3.050648    1.349189   -0.019163
     17          6           0        4.060338    2.270514   -0.285471
     18          6           0        5.378652    1.840080   -0.463158
     19          6           0        5.695063    0.483517   -0.380483
     20          6           0        4.694885   -0.453598   -0.117871
     21          8           0        2.692199   -2.545727    0.262060
     22          1           0        0.888770   -1.839167   -1.320553
     23          1           0       -1.920191   -1.898132   -0.694137
     24          1           0       -4.050150   -1.421194   -1.507449
     25          1           0       -6.519227   -1.362207   -1.327178
     26          1           0       -7.623433    0.302795    0.152582
     27          1           0       -6.238292    1.895522    1.467569
     28          1           0       -3.758031    1.804615    1.315727
     29          1           0        2.020423    1.665741    0.103950
     30          1           0        3.817536    3.324813   -0.355876
     31          1           0        6.158893    2.564509   -0.669779
     32          1           0        6.717272    0.150969   -0.521019
     33          1           0        4.914844   -1.511774   -0.052858
 ---------------------------------------------------------------------

 SCF Done:  E(RHF) =  -1302.16046917     A.U. after   17 cycles
 E2 =    -0.3134861899D+01 EUMP2 =    -0.13052953310695D+04

 The electronic state is 1-A.
 Alpha  occ. eigenvalues --  -92.22917 -20.56281 -20.55782 -15.69011 -15.66490
 Alpha  occ. eigenvalues --  -15.62807 -15.62140 -11.32354 -11.31649 -11.30489
 Alpha  occ. eigenvalues --  -11.28349 -11.26985 -11.26756 -11.26693 -11.26493
 Alpha  occ. eigenvalues --  -11.26441 -11.26399 -11.26285 -11.26085 -11.25747
 Alpha  occ. eigenvalues --  -11.25674  -9.19704  -6.88238  -6.88203  -6.88067
 Alpha  occ. eigenvalues --   -1.46335  -1.45661  -1.33852  -1.27452  -1.23833
 Alpha  occ. eigenvalues --   -1.17796  -1.16736  -1.09231  -1.05436  -1.04473
 Alpha  occ. eigenvalues --   -1.03929  -1.03796  -0.92512  -0.90833  -0.87331
 Alpha  occ. eigenvalues --   -0.85071  -0.83768  -0.82783  -0.80176  -0.76925
 Alpha  occ. eigenvalues --   -0.73911  -0.72222  -0.70615  -0.68883  -0.67717
 Alpha  occ. eigenvalues --   -0.67104  -0.66605  -0.65091  -0.63675  -0.63240
 Alpha  occ. eigenvalues --   -0.62396  -0.62272  -0.61324  -0.60822  -0.55096
 Alpha  occ. eigenvalues --   -0.54168  -0.53784  -0.53555  -0.52954  -0.52250
 Alpha  occ. eigenvalues --   -0.51968  -0.51386  -0.49757  -0.48747  -0.46843
 Alpha  occ. eigenvalues --   -0.46167  -0.45538  -0.43905  -0.36653  -0.36077
 Alpha  occ. eigenvalues --   -0.35938  -0.35227  -0.33120
 Alpha virt. eigenvalues --    0.02576   0.03235   0.03416   0.04128   0.04409
 Alpha virt. eigenvalues --    0.05127   0.05363   0.05452   0.06667   0.06887
 Alpha virt. eigenvalues --    0.07527   0.07670   0.08155   0.08831   0.08911

 Mulliken charges:
               1
     1  O   -1.151509
     2  S    2.891234
     3  N   -0.899600
     4  C    0.149792
     5  N   -0.461223
     6  N   -0.520627
     7  C    1.537145
     8  N   -0.690115
     9  C    0.813889
    10  C    0.109590
    11  C    0.742701
    12  C    0.602119
    13  C    0.554103
    14  C    0.444435
    15  C    1.045623
    16  C    0.053621
    17  C    0.556061
    18  C    0.387099
    19  C    0.675879
    20  C   -0.213046
    21  O   -1.182333
    22  H   -0.057752
    23  H   -0.479985
    24  H   -0.655008
    25  H   -0.434940
    26  H   -0.443445
    27  H   -0.431155
    28  H   -0.520678
    29  H   -0.517287
    30  H   -0.485894
    31  H   -0.440754
    32  H   -0.447796
    33  H   -0.530147
 Sum of Mulliken charges =  -0.00000

 Dipole moment (field-independent basis, Debye):
    X=             -2.8515    Y=              0.3773    Z=             -3.7042  Tot=              4.6898
 Quadrupole moment (field-independent basis, Debye-Ang):
   XX=            -90.1309   YY=           -129.2744   ZZ=           -136.7731
   XY=             14.1670   XZ=             -5.5976   YZ=             10.0144

 Normal termination of Gaussian 16 at Wed Sep 23 07:37:39 2020.
