 Gaussian 16, Revision B.01,

 ----------------------------------------------------------------------
 #p b3lyp/6-31G(d) opt freq NoSymm scf=(MaxCycle=2000,NoVarAcc,NoIncFoc
 k) scrf=(iefpcm,read,solvent=water)
 ----------------------------------------------------------------------

 -------------------
 SM45_m0.n.7.pdb.xyz
 -------------------
 Symbolic Z-matrix:
 Charge =  0 Multiplicity = 1

 SCF Done:  E(RB3LYP) =  -1308.27018616     A.U. after   13 cycles
 SCF Done:  E(RB3LYP) =  -1308.27020145     A.U. after    9 cycles
 SCF Done:  E(RB3LYP) =  -1308.27020209     A.U. after    9 cycles
 SCF Done:  E(RB3LYP) =  -1308.27020526     A.U. after    8 cycles
 SCF Done:  E(RB3LYP) =  -1308.27020440     A.U. after   10 cycles
 SCF Done:  E(RB3LYP) =  -1308.27019810     A.U. after   10 cycles
 SCF Done:  E(RB3LYP) =  -1308.27020499     A.U. after   10 cycles
 SCF Done:  E(RB3LYP) =  -1308.27020555     A.U. after    9 cycles
 SCF Done:  E(RB3LYP) =  -1308.27019495     A.U. after   11 cycles
 SCF Done:  E(RB3LYP) =  -1308.27018097     A.U. after   10 cycles
 SCF Done:  E(RB3LYP) =  -1308.27021025     A.U. after    7 cycles
 SCF Done:  E(RB3LYP) =  -1308.27021165     A.U. after   10 cycles
 SCF Done:  E(RB3LYP) =  -1308.27021069     A.U. after   10 cycles
 SCF Done:  E(RB3LYP) =  -1308.27021097     A.U. after    7 cycles
 SCF Done:  E(RB3LYP) =  -1308.27021169     A.U. after    9 cycles
 SCF Done:  E(RB3LYP) =  -1308.27021074     A.U. after    9 cycles
 Optimization completed.
    -- Stationary point found.
 Normal termination of Gaussian 16 at Wed Sep 23 06:55:31 2020.

 --------------------------------------------------------------------
 #P Geom=AllCheck Guess=TCheck SCRF=Check GenChk RB3LYP/6-31G(d) Freq
 --------------------------------------------------------------------

 Structure from the checkpoint file:  "SM45_m0.n.7.pdb.xyz.mst.n.w.chk"
 -------------------
 SM45_m0.n.7.pdb.xyz
 -------------------
 Charge =  0 Multiplicity = 1

 SCF Done:  E(RB3LYP) =  -1308.27021074     A.U. after    1 cycles

  Exact polarizability: 333.541  23.980 265.875 -36.884  43.246 169.600
 Approx polarizability: 354.546  25.125 326.018 -47.941  56.453 212.501

                      1                      2                      3
                      A                      A                      A
 Frequencies --     13.7185                18.4403                27.8304
 Red. masses --      6.2021                 4.8902                 4.6610
 Frc consts  --      0.0007                 0.0010                 0.0021
 IR Inten    --      6.8574                 2.1456                 1.4180

                      4                      5                      6
                      A                      A                      A
 Frequencies --     35.3398                70.0674                81.6706
 Red. masses --      5.0353                 5.9171                 6.2386
 Frc consts  --      0.0037                 0.0171                 0.0245
 IR Inten    --      1.2186                13.4703                 0.4757

                      7                      8                      9
                      A                      A                      A
 Frequencies --    105.5722               138.3028               177.2850
 Red. masses --      7.7079                 5.0396                 6.2886
 Frc consts  --      0.0506                 0.0568                 0.1165
 IR Inten    --      1.5281                 5.6547                 0.7984

                     10                     11                     12
                      A                      A                      A
 Frequencies --    232.5742               252.2993               269.3326
 Red. masses --      6.1209                 5.4326                 9.2347
 Frc consts  --      0.1951                 0.2037                 0.3947
 IR Inten    --      0.8989                 2.7205                 6.8123

                     13                     14                     15
                      A                      A                      A
 Frequencies --    307.8059               318.5165               370.3350
 Red. masses --      8.0940                 7.4752                 7.5677
 Frc consts  --      0.4518                 0.4468                 0.6115
 IR Inten    --      5.7876                 0.3302                 1.2116

                     16                     17                     18
                      A                      A                      A
 Frequencies --    392.8000               412.4681               418.5832
 Red. masses --      2.8650                 2.9580                 3.0934
 Frc consts  --      0.2604                 0.2965                 0.3193
 IR Inten    --     24.0216                 0.2348                 0.2967

                     19                     20                     21
                      A                      A                      A
 Frequencies --    424.1524               454.7206               468.7980
 Red. masses --      7.3902                 7.1881                 2.2118
 Frc consts  --      0.7833                 0.8757                 0.2864
 IR Inten    --      0.9432                16.2075               118.0040

                     22                     23                     24
                      A                      A                      A
 Frequencies --    486.6654               534.7866               550.9508
 Red. masses --      3.8579                 4.1364                10.4317
 Frc consts  --      0.5383                 0.6970                 1.8657
 IR Inten    --     42.9467                57.5352               174.3238

                     25                     26                     27
                      A                      A                      A
 Frequencies --    566.6887               625.7416               627.9957
 Red. masses --      6.0536                 6.4491                 6.4165
 Frc consts  --      1.1454                 1.4878                 1.4909
 IR Inten    --    177.6149                 0.1826                 1.1732

                     28                     29                     30
                      A                      A                      A
 Frequencies --    667.6404               696.1385               697.0932
 Red. masses --      3.6362                 3.9357                 3.1569
 Frc consts  --      0.9550                 1.1237                 0.9039
 IR Inten    --     10.7057                 7.0347                57.8937

                     31                     32                     33
                      A                      A                      A
 Frequencies --    705.1855               711.2174               724.9756
 Red. masses --      2.3997                 6.5461                 6.2204
 Frc consts  --      0.7031                 1.9509                 1.9263
 IR Inten    --     31.6106                 4.7453                46.1143

                     34                     35                     36
                      A                      A                      A
 Frequencies --    764.3639               778.1976               788.9060
 Red. masses --      1.4842                 1.6150                 1.7352
 Frc consts  --      0.5109                 0.5762                 0.6363
 IR Inten    --     37.6285                83.7208                34.8809

                     37                     38                     39
                      A                      A                      A
 Frequencies --    821.8025               854.2514               856.3251
 Red. masses --      3.7812                 1.2636                 2.3855
 Frc consts  --      1.5046                 0.5433                 1.0306
 IR Inten    --      0.9187                 8.6501               247.1493

                     40                     41                     42
                      A                      A                      A
 Frequencies --    857.5160               936.5980               945.1197
 Red. masses --      1.5324                 1.3897                 1.3077
 Frc consts  --      0.6639                 0.7182                 0.6882
 IR Inten    --     92.0468                 6.7805                 0.7948

                     43                     44                     45
                      A                      A                      A
 Frequencies --    982.7507               988.1768              1007.0044
 Red. masses --      1.3443                 1.3576                 7.6576
 Frc consts  --      0.7650                 0.7811                 4.5751
 IR Inten    --      0.2313                 0.1487                26.3595

                     46                     47                     48
                      A                      A                      A
 Frequencies --   1010.9792              1014.2310              1019.9771
 Red. masses --      1.2694                 6.4055                 1.2982
 Frc consts  --      0.7644                 3.8822                 0.7957
 IR Inten    --      0.3669                 8.3347                 0.0359

                     49                     50                     51
                      A                      A                      A
 Frequencies --   1020.1488              1048.3392              1048.7172
 Red. masses --      5.9050                 3.1469                 3.0368
 Frc consts  --      3.6207                 2.0377                 1.9678
 IR Inten    --      0.3122                15.5208                 2.8523

                     52                     53                     54
                      A                      A                      A
 Frequencies --   1062.9881              1066.3163              1080.6114
 Red. masses --      2.3393                 3.4839                 3.8316
 Frc consts  --      1.5573                 2.3339                 2.6362
 IR Inten    --    141.4011                14.0375               121.5040

                     55                     56                     57
                      A                      A                      A
 Frequencies --   1108.7051              1110.9686              1129.6720
 Red. masses --      1.5397                 1.5391                 4.8209
 Frc consts  --      1.1151                 1.1192                 3.6248
 IR Inten    --     13.4266                11.7670               268.3677

                     58                     59                     60
                      A                      A                      A
 Frequencies --   1188.1533              1195.8509              1199.6235
 Red. masses --      1.1258                 1.0961                 1.1643
 Frc consts  --      0.9364                 0.9236                 0.9872
 IR Inten    --      0.0663                 0.1708                 0.4205

                     61                     62                     63
                      A                      A                      A
 Frequencies --   1207.4743              1228.8481              1233.2819
 Red. masses --      1.1643                 2.1692                 3.5413
 Frc consts  --      1.0001                 1.9300                 3.1735
 IR Inten    --      0.6221                26.6553                 1.1548

                     64                     65                     66
                      A                      A                      A
 Frequencies --   1281.2433              1298.5256              1340.6836
 Red. masses --      9.4370                 9.6671                 2.2946
 Frc consts  --      9.1274                 9.6039                 2.4300
 IR Inten    --    241.2820               198.8287                53.4624

                     67                     68                     69
                      A                      A                      A
 Frequencies --   1344.3323              1364.7320              1366.2181
 Red. masses --      1.4580                 5.4270                 2.6173
 Frc consts  --      1.5525                 5.9553                 2.8784
 IR Inten    --      8.8810                 4.7840                 2.9132

                     70                     71                     72
                      A                      A                      A
 Frequencies --   1379.8772              1421.4515              1484.6435
 Red. masses --      2.6209                 2.5267                 2.6573
 Frc consts  --      2.9402                 3.0079                 3.4509
 IR Inten    --     91.6006                73.3995                14.9613

                     73                     74                     75
                      A                      A                      A
 Frequencies --   1492.9470              1514.9576              1524.7458
 Red. masses --      2.1833                 2.5864                 2.0564
 Frc consts  --      2.8671                 3.4974                 2.8167
 IR Inten    --     24.5130                17.9429                 3.7566

                     76                     77                     78
                      A                      A                      A
 Frequencies --   1550.2054              1602.5529              1643.8442
 Red. masses --      2.7789                 6.5675                 5.5347
 Frc consts  --      3.9345                 9.9374                 8.8119
 IR Inten    --    129.7526               133.4816                 4.0955

                     79                     80                     81
                      A                      A                      A
 Frequencies --   1645.5628              1655.5232              1658.6868
 Red. masses --      5.8391                 6.4358                 5.7347
 Frc consts  --      9.3160                10.3926                 9.2958
 IR Inten    --      0.5735                 9.1834                27.5252

                     82                     83                     84
                      A                      A                      A
 Frequencies --   3213.7703              3217.6512              3222.5528
 Red. masses --      1.0863                 1.0868                 1.0898
 Frc consts  --      6.6103                 6.6294                 6.6680
 IR Inten    --      0.0779                 1.9563                16.9897

                     85                     86                     87
                      A                      A                      A
 Frequencies --   3228.9764              3231.4741              3235.2561
 Red. masses --      1.0892                 1.0935                 1.0932
 Frc consts  --      6.6907                 6.7280                 6.7414
 IR Inten    --     13.4186                40.2176                21.9979

                     88                     89                     90
                      A                      A                      A
 Frequencies --   3239.3090              3243.5416              3252.2843
 Red. masses --      1.0963                 1.0959                 1.0937
 Frc consts  --      6.7776                 6.7928                 6.8159
 IR Inten    --     13.6147                14.1011                 6.0083

                     91                     92                     93
                      A                      A                      A
 Frequencies --   3254.8795              3339.0227              3523.2480
 Red. masses --      1.0934                 1.1005                 1.0764
 Frc consts  --      6.8247                 7.2288                 7.8726
 IR Inten    --      2.1437                 8.2657               191.8440

 - Thermochemistry -
 -------------------
 Temperature   298.150 Kelvin.  Pressure   1.00000 Atm.
 Atom     1 has atomic number  8 and mass  15.99491

 Molecular mass:   300.06810 amu.
 Principal axes and moments of inertia in atomic units:
                           1         2         3
     Eigenvalues --  2427.95451********************
           X            1.00000  -0.00012   0.00055
           Y            0.00011   0.99995   0.01033
           Z           -0.00055  -0.01033   0.99995
 This molecule is an asymmetric top.
 Rotational symmetry number  1.
 Warning -- assumption of classical behavior for rotation
           may cause significant error
 Rotational temperatures (Kelvin)      0.03567     0.00610     0.00560
 Rotational constants (GHZ):           0.74332     0.12705     0.11678
 Zero-point vibrational energy     651452.1 (Joules/Mol)
                                  155.70079 (Kcal/Mol)
 Warning -- explicit consideration of  25 degrees of freedom as
           vibrations may cause significant error
 Vibrational temperatures:     19.74    26.53    40.04    50.85   100.81
          (Kelvin)            117.51   151.89   198.99   255.07   334.62
                              363.00   387.51   442.86   458.27   532.83
                              565.15   593.45   602.25   610.26   654.24
                              674.50   700.20   769.44   792.70   815.34
                              900.30   903.55   960.59  1001.59  1002.96
                             1014.60  1023.28  1043.08  1099.75  1119.65
                             1135.06  1182.39  1229.08  1232.06  1233.77
                             1347.56  1359.82  1413.96  1421.77  1448.85
                             1454.57  1459.25  1467.52  1467.77  1508.33
                             1508.87  1529.40  1534.19  1554.76  1595.18
                             1598.44  1625.35  1709.49  1720.56  1725.99
                             1737.29  1768.04  1774.42  1843.42  1868.29
                             1928.94  1934.19  1963.54  1965.68  1985.34
                             2045.15  2136.07  2148.02  2179.69  2193.77
                             2230.40  2305.72  2365.13  2367.60  2381.93
                             2386.48  4623.90  4629.48  4636.53  4645.78
                             4649.37  4654.81  4660.64  4666.73  4679.31
                             4683.05  4804.11  5069.17

 Zero-point correction=                           0.248125 (Hartree/Particle)
 Thermal correction to Energy=                    0.265431
 Thermal correction to Enthalpy=                  0.266375
 Thermal correction to Gibbs Free Energy=         0.198794
 Sum of electronic and zero-point Energies=          -1308.022086
 Sum of electronic and thermal Energies=             -1308.004780
 Sum of electronic and thermal Enthalpies=           -1308.003836
 Sum of electronic and thermal Free Energies=        -1308.071417

                     E (Thermal)             CV                S
                      KCal/Mol        Cal/Mol-Kelvin    Cal/Mol-Kelvin
 Total                  166.560             66.763            142.236
 Electronic               0.000              0.000              0.000
 Translational            0.889              2.981             42.993
 Rotational               0.889              2.981             34.632
 Vibrational            164.783             60.802             64.611
 Vibration     1          0.593              1.986              7.383
 Vibration     2          0.593              1.986              6.795
 Vibration     3          0.593              1.984              5.978
 Vibration     4          0.594              1.982              5.505
 Vibration     5          0.598              1.968              4.151
 Vibration     6          0.600              1.962              3.850
 Vibration     7          0.605              1.945              3.349
 Vibration     8          0.614              1.915              2.827
 Vibration     9          0.628              1.870              2.357
 Vibration    10          0.653              1.791              1.859
 Vibration    11          0.664              1.759              1.714
 Vibration    12          0.674              1.730              1.600
 Vibration    13          0.698              1.659              1.374
 Vibration    14          0.705              1.638              1.318
 Vibration    15          0.742              1.533              1.078
 Vibration    16          0.760              1.486              0.989
 Vibration    17          0.776              1.443              0.918
 Vibration    18          0.781              1.430              0.897
 Vibration    19          0.786              1.418              0.878
 Vibration    20          0.813              1.350              0.782
 Vibration    21          0.826              1.319              0.741
 Vibration    22          0.843              1.280              0.692
 Vibration    23          0.890              1.173              0.577
 Vibration    24          0.906              1.138              0.542
 Vibration    25          0.923              1.103              0.511

 Optimization completed.
    -- Stationary point found.
 Normal termination of Gaussian 16 at Wed Sep 23 07:06:34 2020.

 ----------------------------------------------------------------------
 #p b3lyp/6-31G(d) scrf=(iefpcm,read,solvent=water) geom=allcheck guess
 =read
 ----------------------------------------------------------------------

 Structure from the checkpoint file:  "SM45_m0.n.7.pdb.xyz.mst.n.w.chk"
 -------------------
 SM45_m0.n.7.pdb.xyz
 -------------------
 Charge =  0 Multiplicity = 1

 SCF Done:  E(RB3LYP) =  -1308.27020391     A.U. after    6 cycles
 Normal termination of Gaussian 16 at Wed Sep 23 07:07:07 2020.

 -----------------------------
 #p B3LYP/6-31G* geom=allcheck
 -----------------------------

 Structure from the checkpoint file:  "SM45_m0.n.7.pdb.xyz.mst.n.w.chk"
 -------------------
 SM45_m0.n.7.pdb.xyz
 -------------------
 Charge =  0 Multiplicity = 1

 SCF Done:  E(RB3LYP) =  -1308.24415527     A.U. after   15 cycles
 Normal termination of Gaussian 16 at Wed Sep 23 07:07:53 2020.
 Gaussian 16:  ES64L-G16RevB.01 20-Dec-2017

 ----------------------------------------------------------------------
 #p mp2/aug-cc-pVDZ scf=(MaxCycle=2000,NoVarAcc,NoIncFock) maxdisk=120G
 B geom=allcheck
 ----------------------------------------------------------------------

 Structure from the checkpoint file:  "SM45_m0.n.7.pdb.xyz.mst.n.w.chk"
 -------------------
 SM45_m0.n.7.pdb.xyz
 -------------------
 Charge =  0 Multiplicity = 1

                         Standard orientation:
 ---------------------------------------------------------------------
 Center     Atomic      Atomic             Coordinates (Angstroms)
 Number     Number       Type             X           Y           Z
 ---------------------------------------------------------------------
      1          8           0        1.562506   -1.095997    1.843925
      2         16           0        2.177833   -1.353929    0.533653
      3          7           0        0.997547   -1.353287   -0.696701
      4          6           0       -0.186962   -0.621511   -0.510546
      5          7           0       -0.187718    0.739293   -0.500305
      6          7           0       -1.417175    1.157793   -0.344282
      7          6           0       -1.481594   -1.070184   -0.358840
      8          7           0       -2.215331    0.068300   -0.273326
      9          6           0       -3.626056    0.208582   -0.129762
     10          6           0       -4.471142   -0.813505   -0.567310
     11          6           0       -5.849211   -0.667356   -0.413991
     12          6           0       -6.377413    0.491883    0.157194
     13          6           0       -5.519599    1.508425    0.582659
     14          6           0       -4.140295    1.371292    0.448308
     15          6           0        3.218517    0.037632    0.129793
     16          6           0        4.025745   -0.028268   -1.008457
     17          6           0        4.857035    1.049251   -1.301467
     18          6           0        4.877930    2.168116   -0.463372
     19          6           0        4.068273    2.215053    0.672469
     20          6           0        3.228634    1.143753    0.978498
     21          8           0        2.927383   -2.598957    0.309590
     22          1           0        0.854207   -2.313923   -1.011193
     23          1           0       -1.905819   -2.057238   -0.299433
     24          1           0       -4.061078   -1.702784   -1.031009
     25          1           0       -6.508008   -1.459603   -0.752082
     26          1           0       -7.450222    0.602396    0.270131
     27          1           0       -5.922202    2.410071    1.030581
     28          1           0       -3.463498    2.145214    0.785660
     29          1           0        4.006020   -0.902279   -1.648205
     30          1           0        5.489587    1.014405   -2.181087
     31          1           0        5.528849    3.003545   -0.696869
     32          1           0        4.088839    3.082349    1.322469
     33          1           0        2.594435    1.156677    1.855718
 ---------------------------------------------------------------------

 SCF Done:  E(RHF) =  -1302.16231237     A.U. after   17 cycles
 E2 =    -0.3133584015D+01 EUMP2 =    -0.13052958963861D+04

 The electronic state is 1-A.
 Alpha  occ. eigenvalues --  -92.22818 -20.56054 -20.56044 -15.68923 -15.66309
 Alpha  occ. eigenvalues --  -15.62855 -15.61979 -11.32067 -11.31631 -11.30447
 Alpha  occ. eigenvalues --  -11.28371 -11.26997 -11.26940 -11.26742 -11.26660
 Alpha  occ. eigenvalues --  -11.26521 -11.26445 -11.26224 -11.26029 -11.25837
 Alpha  occ. eigenvalues --  -11.25690  -9.19619  -6.88150  -6.88106  -6.87990
 Alpha  occ. eigenvalues --   -1.46206  -1.45569  -1.33833  -1.27358  -1.23707
 Alpha  occ. eigenvalues --   -1.17865  -1.16695  -1.09045  -1.05480  -1.04437
 Alpha  occ. eigenvalues --   -1.03933  -1.03838  -0.92424  -0.90717  -0.87383
 Alpha  occ. eigenvalues --   -0.85075  -0.83725  -0.82671  -0.80181  -0.76886
 Alpha  occ. eigenvalues --   -0.73693  -0.71946  -0.70665  -0.68905  -0.67499
 Alpha  occ. eigenvalues --   -0.66995  -0.66480  -0.65417  -0.63649  -0.63476
 Alpha  occ. eigenvalues --   -0.62392  -0.62044  -0.61280  -0.60960  -0.54793
 Alpha  occ. eigenvalues --   -0.54131  -0.53919  -0.53512  -0.52805  -0.52085
 Alpha  occ. eigenvalues --   -0.51759  -0.51671  -0.49967  -0.48788  -0.46657
 Alpha  occ. eigenvalues --   -0.46490  -0.45226  -0.43858  -0.36608  -0.36097
 Alpha  occ. eigenvalues --   -0.36024  -0.35297  -0.33056
 Alpha virt. eigenvalues --    0.02602   0.03252   0.03402   0.04117   0.04271
 Alpha virt. eigenvalues --    0.05208   0.05286   0.05474   0.06663   0.06823
 Alpha virt. eigenvalues --    0.07372   0.07626   0.07994   0.08310   0.08987

 Mulliken charges:
               1
     1  O   -1.211993
     2  S    2.979282
     3  N   -0.907050
     4  C    0.343135
     5  N   -0.538047
     6  N   -0.490681
     7  C    1.452301
     8  N   -0.701791
     9  C    0.835737
    10  C    0.068712
    11  C    0.772416
    12  C    0.595441
    13  C    0.619633
    14  C    0.380295
    15  C    0.913693
    16  C   -0.049137
    17  C    0.496786
    18  C    0.499414
    19  C    0.462063
    20  C    0.173563
    21  O   -1.175222
    22  H   -0.041737
    23  H   -0.479461
    24  H   -0.660383
    25  H   -0.436898
    26  H   -0.443657
    27  H   -0.430762
    28  H   -0.522757
    29  H   -0.592739
    30  H   -0.443043
    31  H   -0.437967
    32  H   -0.458004
    33  H   -0.571145
 Sum of Mulliken charges =  -0.00000

 Dipole moment (field-independent basis, Debye):
    X=             -3.5343    Y=              0.9557    Z=             -2.5948  Tot=              4.4875
 Quadrupole moment (field-independent basis, Debye-Ang):
   XX=           -100.6304   YY=           -126.3385   ZZ=           -134.1328
   XY=             19.6995   XZ=             -8.6566   YZ=             13.4582

 Normal termination of Gaussian 16 at Wed Sep 23 07:45:42 2020.
