 Gaussian 16, Revision B.01,

 ----------------------------------------------------------------------
 #p b3lyp/6-31G(d) opt freq NoSymm scf=(MaxCycle=2000,NoVarAcc,NoIncFoc
 k) scrf=(iefpcm,read,solvent=water)
 ----------------------------------------------------------------------

 -------------------
 SM45_m0.n.5.pdb.xyz
 -------------------
 Symbolic Z-matrix:
 Charge =  0 Multiplicity = 1

 SCF Done:  E(RB3LYP) =  -1308.27191576     A.U. after   13 cycles
 SCF Done:  E(RB3LYP) =  -1308.27196582     A.U. after    9 cycles
 SCF Done:  E(RB3LYP) =  -1308.27197316     A.U. after    9 cycles
 SCF Done:  E(RB3LYP) =  -1308.27197249     A.U. after    8 cycles
 SCF Done:  E(RB3LYP) =  -1308.27196686     A.U. after    9 cycles
 SCF Done:  E(RB3LYP) =  -1308.27197021     A.U. after    9 cycles
 SCF Done:  E(RB3LYP) =  -1308.27197334     A.U. after    8 cycles
 SCF Done:  E(RB3LYP) =  -1308.27196896     A.U. after    9 cycles
 SCF Done:  E(RB3LYP) =  -1308.27197092     A.U. after    7 cycles
 SCF Done:  E(RB3LYP) =  -1308.27197392     A.U. after    9 cycles
 SCF Done:  E(RB3LYP) =  -1308.27197326     A.U. after    9 cycles
 SCF Done:  E(RB3LYP) =  -1308.27197570     A.U. after    7 cycles
 SCF Done:  E(RB3LYP) =  -1308.27197668     A.U. after    6 cycles
 Optimization completed.
    -- Stationary point found.
 Normal termination of Gaussian 16 at Wed Sep 23 06:18:05 2020.

 --------------------------------------------------------------------
 #P Geom=AllCheck Guess=TCheck SCRF=Check GenChk RB3LYP/6-31G(d) Freq
 --------------------------------------------------------------------

 Structure from the checkpoint file:  "SM45_m0.n.5.pdb.xyz.mst.n.w.chk"
 -------------------
 SM45_m0.n.5.pdb.xyz
 -------------------
 Charge =  0 Multiplicity = 1

 SCF Done:  E(RB3LYP) =  -1308.27197668     A.U. after    1 cycles

  Exact polarizability: 284.263  44.334 247.965  46.547 -30.242 235.611
 Approx polarizability: 310.328  53.129 289.971  62.752 -43.979 297.916

                      1                      2                      3
                      A                      A                      A
 Frequencies --     18.9775                22.1401                31.4332
 Red. masses --      5.6231                 5.1932                 4.1801
 Frc consts  --      0.0012                 0.0015                 0.0024
 IR Inten    --      1.1378                 0.9028                 0.8936

                      4                      5                      6
                      A                      A                      A
 Frequencies --     46.1462                76.9613                87.7645
 Red. masses --      5.1847                 6.3972                 5.4048
 Frc consts  --      0.0065                 0.0223                 0.0245
 IR Inten    --      1.9059                 0.9757                13.5692

                      7                      8                      9
                      A                      A                      A
 Frequencies --    116.8511               133.0227               171.4558
 Red. masses --      6.9873                 5.7587                 6.1737
 Frc consts  --      0.0562                 0.0600                 0.1069
 IR Inten    --      2.6040                 2.5378                 3.1583

                     10                     11                     12
                      A                      A                      A
 Frequencies --    228.1590               258.5611               283.1955
 Red. masses --      5.3646                 7.3452                 9.1823
 Frc consts  --      0.1645                 0.2893                 0.4339
 IR Inten    --      0.1209                 2.2748                 1.3677

                     13                     14                     15
                      A                      A                      A
 Frequencies --    298.8394               304.1833               374.7951
 Red. masses --      4.9166                 8.7761                 7.7508
 Frc consts  --      0.2587                 0.4784                 0.6415
 IR Inten    --      4.2895                 6.5283                 0.4057

                     16                     17                     18
                      A                      A                      A
 Frequencies --    409.8021               412.8416               418.9469
 Red. masses --      4.5126                 2.9934                 6.3062
 Frc consts  --      0.4465                 0.3006                 0.6521
 IR Inten    --     20.3870                 0.2409                 5.8430

                     19                     20                     21
                      A                      A                      A
 Frequencies --    421.1025               442.3494               486.5703
 Red. masses --      3.3201                 5.2906                 3.2449
 Frc consts  --      0.3469                 0.6099                 0.4526
 IR Inten    --      0.9891                10.3278                15.8584

                     22                     23                     24
                      A                      A                      A
 Frequencies --    521.8626               539.2408               542.0507
 Red. masses --      2.7632                 6.2399                 4.7204
 Frc consts  --      0.4434                 1.0690                 0.8172
 IR Inten    --     51.2233                93.0357                68.6376

                     25                     26                     27
                      A                      A                      A
 Frequencies --    596.3466               624.7397               627.5350
 Red. masses --      6.8427                 6.4418                 6.4013
 Frc consts  --      1.4338                 1.4813                 1.4852
 IR Inten    --    412.9836                 0.0315                 1.0611

                     28                     29                     30
                      A                      A                      A
 Frequencies --    666.8776               695.5184               697.5473
 Red. masses --      3.5041                 2.5523                 5.9717
 Frc consts  --      0.9182                 0.7274                 1.7120
 IR Inten    --      7.9677                29.0361                28.1442

                     31                     32                     33
                      A                      A                      A
 Frequencies --    706.0313               720.0772               724.1351
 Red. masses --      2.3025                 7.9159                 6.4284
 Frc consts  --      0.6762                 2.4183                 1.9861
 IR Inten    --     31.5934                23.8190               106.3423

                     34                     35                     36
                      A                      A                      A
 Frequencies --    765.5542               778.3666               791.2848
 Red. masses --      1.4699                 1.6150                 1.8143
 Frc consts  --      0.5076                 0.5765                 0.6693
 IR Inten    --     27.0563                86.0229                19.0672

                     37                     38                     39
                      A                      A                      A
 Frequencies --    822.3423               851.7700               855.2877
 Red. masses --      3.2938                 2.9154                 1.2650
 Frc consts  --      1.3124                 1.2462                 0.5452
 IR Inten    --      2.1101                98.9212                 1.1476

                     40                     41                     42
                      A                      A                      A
 Frequencies --    859.7968               937.4845               948.1056
 Red. masses --      1.2572                 1.3874                 1.3158
 Frc consts  --      0.5476                 0.7184                 0.6969
 IR Inten    --      1.2293                 6.0951                 0.3408

                     43                     44                     45
                      A                      A                      A
 Frequencies --    983.0064               987.9145              1005.3847
 Red. masses --      1.3433                 1.3578                 7.6707
 Frc consts  --      0.7648                 0.7808                 4.5682
 IR Inten    --      0.2992                 0.0738                28.6646

                     46                     47                     48
                      A                      A                      A
 Frequencies --   1010.9460              1013.3198              1020.1142
 Red. masses --      1.2701                 6.4252                 6.0821
 Frc consts  --      0.7648                 3.8872                 3.7291
 IR Inten    --      0.3127                 6.6918                 0.2128

                     49                     50                     51
                      A                      A                      A
 Frequencies --   1020.9727              1045.2756              1045.6952
 Red. masses --      1.2888                 2.8625                 3.6214
 Frc consts  --      0.7915                 1.8427                 2.3331
 IR Inten    --      0.3041                14.0420                 3.5808

                     52                     53                     54
                      A                      A                      A
 Frequencies --   1060.1100              1064.9958              1081.6027
 Red. masses --      1.9895                 4.1276                 3.4519
 Frc consts  --      1.3174                 2.7583                 2.3793
 IR Inten    --     66.0360                86.8185                84.6016

                     55                     56                     57
                      A                      A                      A
 Frequencies --   1104.0109              1108.4987              1131.7215
 Red. masses --      1.5294                 1.5480                 6.2243
 Frc consts  --      1.0983                 1.1207                 4.6970
 IR Inten    --     13.9213                11.5952               371.8788

                     58                     59                     60
                      A                      A                      A
 Frequencies --   1188.3768              1191.6986              1196.8723
 Red. masses --      1.1280                 1.1002                 1.1740
 Frc consts  --      0.9386                 0.9205                 0.9908
 IR Inten    --      0.3411                 0.4188                 2.1759

                     61                     62                     63
                      A                      A                      A
 Frequencies --   1198.8305              1225.3587              1232.0730
 Red. masses --      1.1922                 2.3176                 2.8221
 Frc consts  --      1.0096                 2.0503                 2.5240
 IR Inten    --      1.7056                12.9250                 4.8581

                     64                     65                     66
                      A                      A                      A
 Frequencies --   1290.0687              1304.8451              1337.0403
 Red. masses --      6.2155                12.9285                 1.4493
 Frc consts  --      6.0947                12.9693                 1.5265
 IR Inten    --    186.4343               186.4215                 1.6202

                     67                     68                     69
                      A                      A                      A
 Frequencies --   1344.1205              1362.1005              1364.9889
 Red. masses --      2.4513                 6.0555                 2.5617
 Frc consts  --      2.6093                 6.6194                 2.8121
 IR Inten    --     66.2599                 3.0689                 2.2225

                     70                     71                     72
                      A                      A                      A
 Frequencies --   1381.5713              1422.0616              1482.9583
 Red. masses --      3.1525                 2.1516                 2.6809
 Frc consts  --      3.5453                 2.5635                 3.4737
 IR Inten    --    110.6060                22.9098                22.2230

                     73                     74                     75
                      A                      A                      A
 Frequencies --   1491.7171              1513.1001              1518.9193
 Red. masses --      2.1760                 2.5829                 2.0817
 Frc consts  --      2.8529                 3.4842                 2.8297
 IR Inten    --     28.9742                14.6885                 3.8531

                     76                     77                     78
                      A                      A                      A
 Frequencies --   1549.4655              1589.1528              1639.7943
 Red. masses --      2.7495                 6.3909                 5.5339
 Frc consts  --      3.8893                 9.5091                 8.7671
 IR Inten    --    124.5018                78.0693                 4.8108

                     79                     80                     81
                      A                      A                      A
 Frequencies --   1643.1746              1654.5180              1657.2410
 Red. masses --      5.8766                 6.4291                 5.6856
 Frc consts  --      9.3486                10.3691                 9.2003
 IR Inten    --      0.1350                 9.6879                22.6376

                     82                     83                     84
                      A                      A                      A
 Frequencies --   3214.4156              3215.6425              3223.6821
 Red. masses --      1.0863                 1.0867                 1.0898
 Frc consts  --      6.6130                 6.6203                 6.6726
 IR Inten    --      0.1531                 0.8599                17.2596

                     85                     86                     87
                      A                      A                      A
 Frequencies --   3225.2221              3232.1844              3233.6969
 Red. masses --      1.0900                 1.0938                 1.0940
 Frc consts  --      6.6800                 6.7325                 6.7404
 IR Inten    --     17.1912                41.3042                22.8665

                     88                     89                     90
                      A                      A                      A
 Frequencies --   3241.8299              3243.7567              3250.8560
 Red. masses --      1.0955                 1.0948                 1.0935
 Frc consts  --      6.7835                 6.7871                 6.8089
 IR Inten    --     12.6404                11.0373                 4.5200

                     91                     92                     93
                      A                      A                      A
 Frequencies --   3253.2953              3337.1500              3497.7045
 Red. masses --      1.0936                 1.1005                 1.0761
 Frc consts  --      6.8195                 7.2208                 7.7567
 IR Inten    --      2.7013                 8.0771               150.9428

 - Thermochemistry -
 -------------------
 Temperature   298.150 Kelvin.  Pressure   1.00000 Atm.
 Atom     1 has atomic number  8 and mass  15.99491

 Molecular mass:   300.06810 amu.
 Principal axes and moments of inertia in atomic units:
                           1         2         3
     Eigenvalues --  3566.13390********************
           X            0.99998  -0.00407   0.00560
           Y            0.00403   0.99997   0.00732
           Z           -0.00563  -0.00730   0.99996
 This molecule is an asymmetric top.
 Rotational symmetry number  1.
 Warning -- assumption of classical behavior for rotation
           may cause significant error
 Rotational temperatures (Kelvin)      0.02429     0.00784     0.00668
 Rotational constants (GHZ):           0.50608     0.16339     0.13918
 Zero-point vibrational energy     651660.4 (Joules/Mol)
                                  155.75057 (Kcal/Mol)
 Warning -- explicit consideration of  25 degrees of freedom as
           vibrations may cause significant error
 Vibrational temperatures:     27.30    31.85    45.23    66.39   110.73
          (Kelvin)            126.27   168.12   191.39   246.69   328.27
                              372.01   407.46   429.96   437.65   539.25
                              589.61   593.99   602.77   605.87   636.44
                              700.07   750.84   775.85   779.89   858.01
                              898.86   902.88   959.49  1000.70  1003.61
                             1015.82  1036.03  1041.87  1101.46  1119.90
                             1138.48  1183.17  1225.51  1230.57  1237.06
                             1348.83  1364.11  1414.33  1421.39  1446.52
                             1454.53  1457.94  1467.72  1468.95  1503.92
                             1504.52  1525.26  1532.29  1556.19  1588.43
                             1594.88  1628.29  1709.81  1714.59  1722.03
                             1724.85  1763.02  1772.68  1856.12  1877.38
                             1923.70  1933.89  1959.76  1963.91  1987.77
                             2046.03  2133.65  2146.25  2177.01  2185.39
                             2229.34  2286.44  2359.30  2364.16  2380.48
                             2384.40  4624.83  4626.59  4638.16  4640.38
                             4650.39  4652.57  4664.27  4667.04  4677.26
                             4680.77  4801.41  5032.42

 Zero-point correction=                           0.248204 (Hartree/Particle)
 Thermal correction to Energy=                    0.265376
 Thermal correction to Enthalpy=                  0.266320
 Thermal correction to Gibbs Free Energy=         0.199876
 Sum of electronic and zero-point Energies=          -1308.023772
 Sum of electronic and thermal Energies=             -1308.006601
 Sum of electronic and thermal Enthalpies=           -1308.005657
 Sum of electronic and thermal Free Energies=        -1308.072100

                     E (Thermal)             CV                S
                      KCal/Mol        Cal/Mol-Kelvin    Cal/Mol-Kelvin
 Total                  166.526             66.592            139.843
 Electronic               0.000              0.000              0.000
 Translational            0.889              2.981             42.993
 Rotational               0.889              2.981             34.590
 Vibrational            164.748             60.630             62.260
 Vibration     1          0.593              1.986              6.738
 Vibration     2          0.593              1.985              6.432
 Vibration     3          0.594              1.983              5.737
 Vibration     4          0.595              1.979              4.976
 Vibration     5          0.599              1.965              3.967
 Vibration     6          0.601              1.958              3.709
 Vibration     7          0.608              1.935              3.152
 Vibration     8          0.613              1.920              2.902
 Vibration     9          0.626              1.878              2.419
 Vibration    10          0.651              1.798              1.893
 Vibration    11          0.667              1.748              1.671
 Vibration    12          0.682              1.705              1.514
 Vibration    13          0.692              1.676              1.423
 Vibration    14          0.695              1.666              1.394
 Vibration    15          0.746              1.524              1.060
 Vibration    16          0.774              1.449              0.927
 Vibration    17          0.777              1.442              0.917
 Vibration    18          0.782              1.429              0.896
 Vibration    19          0.784              1.424              0.888
 Vibration    20          0.802              1.378              0.819
 Vibration    21          0.843              1.280              0.693
 Vibration    22          0.877              1.202              0.606
 Vibration    23          0.894              1.163              0.567
 Vibration    24          0.897              1.157              0.561
 Vibration    25          0.954              1.040              0.456

                           ! Non-Optimized Parameters !
 Normal termination of Gaussian 16 at Wed Sep 23 06:29:25 2020.

 ----------------------------------------------------------------------
 #p b3lyp/6-31G(d) scrf=(iefpcm,read,solvent=water) geom=allcheck guess
 =read
 ----------------------------------------------------------------------

 Structure from the checkpoint file:  "SM45_m0.n.5.pdb.xyz.mst.n.w.chk"
 -------------------
 SM45_m0.n.5.pdb.xyz
 -------------------
 Charge =  0 Multiplicity = 1

 SCF Done:  E(RB3LYP) =  -1308.27197225     A.U. after    5 cycles
 Normal termination of Gaussian 16 at Wed Sep 23 06:29:58 2020.

 -----------------------------
 #p B3LYP/6-31G* geom=allcheck
 -----------------------------

 Structure from the checkpoint file:  "SM45_m0.n.5.pdb.xyz.mst.n.w.chk"
 -------------------
 SM45_m0.n.5.pdb.xyz
 -------------------
 Charge =  0 Multiplicity = 1

 SCF Done:  E(RB3LYP) =  -1308.23930864     A.U. after   15 cycles
 Normal termination of Gaussian 16 at Wed Sep 23 06:30:50 2020.
 Gaussian 16:  ES64L-G16RevB.01 20-Dec-2017

 ----------------------------------------------------------------------
 #p mp2/aug-cc-pVDZ scf=(MaxCycle=2000,NoVarAcc,NoIncFock) maxdisk=120G
 B geom=allcheck
 ----------------------------------------------------------------------

 Structure from the checkpoint file:  "SM45_m0.n.5.pdb.xyz.mst.n.w.chk"
 -------------------
 SM45_m0.n.5.pdb.xyz
 -------------------
 Charge =  0 Multiplicity = 1

                         Standard orientation:
 ---------------------------------------------------------------------
 Center     Atomic      Atomic             Coordinates (Angstroms)
 Number     Number       Type             X           Y           Z
 ---------------------------------------------------------------------
      1          8           0       -3.935179   -1.532416   -0.796765
      2         16           0       -2.756802   -1.166587   -0.000832
      3          7           0       -1.435825   -1.663775   -0.955151
      4          6           0       -0.124525   -1.458200   -0.483982
      5          7           0        0.439277   -2.282126    0.443489
      6          7           0        1.662114   -1.884975    0.670779
      7          6           0        0.801587   -0.503541   -0.852147
      8          7           0        1.900738   -0.809457   -0.120645
      9          6           0        3.171100   -0.162097   -0.107473
     10          6           0        3.608223    0.521029   -1.243821
     11          6           0        4.845989    1.161604   -1.217023
     12          6           0        5.643911    1.107554   -0.072640
     13          6           0        5.197566    0.412094    1.053688
     14          6           0        3.955929   -0.221469    1.046652
     15          6           0       -2.700128    0.611612    0.148613
     16          6           0       -3.271310    1.396938   -0.855720
     17          6           0       -3.202556    2.784349   -0.741544
     18          6           0       -2.568919    3.366518    0.360058
     19          6           0       -2.003406    2.567299    1.355733
     20          6           0       -2.064305    1.177489    1.255270
     21          8           0       -2.547729   -1.741547    1.332040
     22          1           0       -1.576602   -1.361416   -1.921052
     23          1           0        0.755856    0.327716   -1.534331
     24          1           0        2.997314    0.541609   -2.138281
     25          1           0        5.187841    1.694102   -2.097375
     26          1           0        6.607887    1.603894   -0.058487
     27          1           0        5.811249    0.369263    1.946718
     28          1           0        3.590283   -0.751418    1.916510
     29          1           0       -3.769048    0.930791   -1.697273
     30          1           0       -3.647232    3.408607   -1.508393
     31          1           0       -2.520182    4.446655    0.444131
     32          1           0       -1.518977    3.022652    2.212164
     33          1           0       -1.645343    0.539899    2.023494
 ---------------------------------------------------------------------

 SCF Done:  E(RHF) =  -1302.15849786     A.U. after   17 cycles
 E2 =    -0.3135044055D+01 EUMP2 =    -0.13052935419125D+04

 The electronic state is 1-A.
 Alpha  occ. eigenvalues --  -92.22815 -20.55953 -20.55659 -15.68983 -15.66322
 Alpha  occ. eigenvalues --  -15.63095 -15.62086 -11.32069 -11.31924 -11.31017
 Alpha  occ. eigenvalues --  -11.29546 -11.28262 -11.28025 -11.27843 -11.27252
 Alpha  occ. eigenvalues --  -11.27247 -11.27119 -11.26978 -11.26781 -11.26567
 Alpha  occ. eigenvalues --  -11.26351  -9.19591  -6.88126  -6.88074  -6.87983
 Alpha  occ. eigenvalues --   -1.46208  -1.45565  -1.33774  -1.27287  -1.23894
 Alpha  occ. eigenvalues --   -1.19132  -1.16985  -1.09156  -1.06538  -1.05247
 Alpha  occ. eigenvalues --   -1.04725  -1.04088  -0.92525  -0.90770  -0.87678
 Alpha  occ. eigenvalues --   -0.86339  -0.84335  -0.83077  -0.80789  -0.77206
 Alpha  occ. eigenvalues --   -0.75080  -0.72033  -0.71148  -0.69031  -0.68146
 Alpha  occ. eigenvalues --   -0.67037  -0.66796  -0.66372  -0.64665  -0.63778
 Alpha  occ. eigenvalues --   -0.62679  -0.62276  -0.61922  -0.61584  -0.55503
 Alpha  occ. eigenvalues --   -0.54619  -0.54097  -0.53794  -0.53544  -0.52949
 Alpha  occ. eigenvalues --   -0.52342  -0.50562  -0.49564  -0.49281  -0.46979
 Alpha  occ. eigenvalues --   -0.46583  -0.44867  -0.43980  -0.37615  -0.37194
 Alpha  occ. eigenvalues --   -0.36564  -0.36348  -0.33501
 Alpha virt. eigenvalues --    0.01913   0.02810   0.02895   0.03766   0.03848
 Alpha virt. eigenvalues --    0.04932   0.04998   0.05674   0.06326   0.06424
 Alpha virt. eigenvalues --    0.06683   0.07606   0.07721   0.07734   0.08367

 Mulliken charges:
               1
     1  O   -1.145978
     2  S    2.836650
     3  N   -0.919869
     4  C    1.231135
     5  N   -0.640189
     6  N   -0.454723
     7  C    0.826188
     8  N   -0.650229
     9  C    0.827036
    10  C    0.114548
    11  C    0.731231
    12  C    0.626660
    13  C    0.580882
    14  C    0.544525
    15  C    0.784649
    16  C    0.060833
    17  C    0.500295
    18  C    0.501669
    19  C    0.442810
    20  C    0.222897
    21  O   -1.189541
    22  H   -0.041158
    23  H   -0.591457
    24  H   -0.681074
    25  H   -0.445412
    26  H   -0.446352
    27  H   -0.431413
    28  H   -0.545490
    29  H   -0.600100
    30  H   -0.456696
    31  H   -0.446036
    32  H   -0.482980
    33  H   -0.663312
 Sum of Mulliken charges =  -0.00000

 Dipole moment (field-independent basis, Debye):
    X=              5.0005    Y=              8.8709    Z=             -3.4846  Tot=             10.7630
 Quadrupole moment (field-independent basis, Debye-Ang):
   XX=           -131.2273   YY=           -138.0338   ZZ=           -120.3227
   XY=            -11.4565   XZ=              4.9832   YZ=              3.5350

 Normal termination of Gaussian 16 at Wed Sep 23 07:25:37 2020.
