 Gaussian 16, Revision B.01,

 ----------------------------------------------------------------------
 #p b3lyp/6-31G(d) opt freq NoSymm scf=(MaxCycle=2000,NoVarAcc,NoIncFoc
 k) scrf=(iefpcm,read,solvent=water)
 ----------------------------------------------------------------------

 -------------------
 SM45_m0.n.8.pdb.xyz
 -------------------
 Symbolic Z-matrix:
 Charge =  0 Multiplicity = 1

 SCF Done:  E(RB3LYP) =  -1308.26950111     A.U. after   13 cycles
 SCF Done:  E(RB3LYP) =  -1308.26952728     A.U. after    9 cycles
 SCF Done:  E(RB3LYP) =  -1308.26953049     A.U. after    8 cycles
 SCF Done:  E(RB3LYP) =  -1308.26953347     A.U. after    7 cycles
 SCF Done:  E(RB3LYP) =  -1308.26954433     A.U. after    8 cycles
 SCF Done:  E(RB3LYP) =  -1308.26955553     A.U. after    8 cycles
 SCF Done:  E(RB3LYP) =  -1308.26956484     A.U. after    7 cycles
 SCF Done:  E(RB3LYP) =  -1308.26957938     A.U. after    8 cycles
 SCF Done:  E(RB3LYP) =  -1308.26958019     A.U. after    7 cycles
 SCF Done:  E(RB3LYP) =  -1308.26958223     A.U. after    7 cycles
 Optimization completed.
    -- Stationary point found.
 Normal termination of Gaussian 16 at Wed Sep 23 06:12:45 2020.

 --------------------------------------------------------------------
 #P Geom=AllCheck Guess=TCheck SCRF=Check GenChk RB3LYP/6-31G(d) Freq
 --------------------------------------------------------------------

 Structure from the checkpoint file:  "SM45_m0.n.8.pdb.xyz.mst.n.w.chk"
 -------------------
 SM45_m0.n.8.pdb.xyz
 -------------------
 Charge =  0 Multiplicity = 1

 SCF Done:  E(RB3LYP) =  -1308.26958223     A.U. after    1 cycles

  Exact polarizability: 380.908   4.108 254.745 -17.678  33.515 138.071
 Approx polarizability: 402.897  -1.020 317.233 -23.079  46.333 172.966

                      1                      2                      3
                      A                      A                      A
 Frequencies --     19.4537                28.0601                29.4109
 Red. masses --      6.3010                 4.5628                 4.3102
 Frc consts  --      0.0014                 0.0021                 0.0022
 IR Inten    --      3.7706                 3.0513                 1.5569

                      4                      5                      6
                      A                      A                      A
 Frequencies --     36.4515                77.4038                84.7160
 Red. masses --      5.7330                 5.6789                 6.8082
 Frc consts  --      0.0045                 0.0200                 0.0288
 IR Inten    --      4.8263                 9.5377                 4.3716

                      7                      8                      9
                      A                      A                      A
 Frequencies --    112.5344               127.8810               171.2348
 Red. masses --      7.6265                 5.1744                 5.4490
 Frc consts  --      0.0569                 0.0499                 0.0941
 IR Inten    --      1.4707                 5.4798                 6.4881

                     10                     11                     12
                      A                      A                      A
 Frequencies --    227.2500               250.2114               271.7320
 Red. masses --      5.6113                 5.1237                 6.2523
 Frc consts  --      0.1707                 0.1890                 0.2720
 IR Inten    --      2.9793                 2.2173                11.6698

                     13                     14                     15
                      A                      A                      A
 Frequencies --    307.2779               314.8451               344.9819
 Red. masses --      8.2048                 7.8610                 2.1070
 Frc consts  --      0.4564                 0.4591                 0.1477
 IR Inten    --      9.8674                 3.3136                68.3956

                     16                     17                     18
                      A                      A                      A
 Frequencies --    377.1838               389.3817               411.7192
 Red. masses --      3.7241                 7.8840                 2.9753
 Frc consts  --      0.3122                 0.7043                 0.2972
 IR Inten    --     39.0940                14.5217                 1.9325

                     19                     20                     21
                      A                      A                      A
 Frequencies --    418.7092               422.4283               467.3969
 Red. masses --      3.1415                 6.8538                 5.1894
 Frc consts  --      0.3245                 0.7206                 0.6679
 IR Inten    --      1.4372                18.2800                18.2425

                     22                     23                     24
                      A                      A                      A
 Frequencies --    497.7427               535.0783               551.8749
 Red. masses --      4.6612                 4.0467                 8.6152
 Frc consts  --      0.6804                 0.6826                 1.5460
 IR Inten    --      8.7133                60.0944               127.4081

                     25                     26                     27
                      A                      A                      A
 Frequencies --    567.7459               626.0348               627.6386
 Red. masses --      7.9123                 6.4434                 6.3996
 Frc consts  --      1.5027                 1.4878                 1.4853
 IR Inten    --    233.9382                 0.7626                 1.8852

                     28                     29                     30
                      A                      A                      A
 Frequencies --    664.1833               696.3234               699.2721
 Red. masses --      3.5571                 5.9538                 2.6583
 Frc consts  --      0.9245                 1.7009                 0.7659
 IR Inten    --      8.9686                22.3817                34.1406

                     31                     32                     33
                      A                      A                      A
 Frequencies --    705.0416               711.2225               726.4967
 Red. masses --      2.4122                 6.9706                 6.0497
 Frc consts  --      0.7065                 2.0775                 1.8813
 IR Inten    --     34.2090                 1.5197                67.3511

                     34                     35                     36
                      A                      A                      A
 Frequencies --    767.4660               777.9835               782.6009
 Red. masses --      1.4425                 1.5854                 1.7331
 Frc consts  --      0.5006                 0.5654                 0.6254
 IR Inten    --     31.5724               109.0055                26.1572

                     37                     38                     39
                      A                      A                      A
 Frequencies --    822.0212               854.0070               855.3959
 Red. masses --      3.6393                 1.4606                 3.0805
 Frc consts  --      1.4489                 0.6276                 1.3280
 IR Inten    --     15.8979                74.3762               253.1771

                     40                     41                     42
                      A                      A                      A
 Frequencies --    868.9871               936.5258               956.1878
 Red. masses --      1.2463                 1.3918                 1.3177
 Frc consts  --      0.5545                 0.7192                 0.7098
 IR Inten    --      4.6984                 6.6334                 3.2773

                     43                     44                     45
                      A                      A                      A
 Frequencies --    982.7008               994.1796              1006.9635
 Red. masses --      1.3447                 1.3581                 7.7299
 Frc consts  --      0.7651                 0.7909                 4.6180
 IR Inten    --      0.2786                 0.7877                26.7348

                     46                     47                     48
                      A                      A                      A
 Frequencies --   1010.4180              1013.3996              1020.2457
 Red. masses --      1.2686                 5.5599                 6.0781
 Frc consts  --      0.7631                 3.3642                 3.7276
 IR Inten    --      0.3426                 6.4832                 0.6335

                     49                     50                     51
                      A                      A                      A
 Frequencies --   1020.6974              1049.1931              1049.8227
 Red. masses --      1.3125                 2.7778                 3.2047
 Frc consts  --      0.8056                 1.8016                 2.0810
 IR Inten    --      0.2190                 1.0852                13.7528

                     52                     53                     54
                      A                      A                      A
 Frequencies --   1067.9741              1068.8786              1083.7081
 Red. masses --      3.7591                 2.4603                 3.7542
 Frc consts  --      2.5261                 1.6561                 2.5977
 IR Inten    --      8.8266               144.8939               131.6830

                     55                     56                     57
                      A                      A                      A
 Frequencies --   1107.6709              1113.2201              1133.0755
 Red. masses --      1.5383                 1.5882                 4.9633
 Frc consts  --      1.1120                 1.1596                 3.7544
 IR Inten    --     13.3861                 5.9299               248.3784

                     58                     59                     60
                      A                      A                      A
 Frequencies --   1188.1327              1194.0710              1197.2170
 Red. masses --      1.0977                 1.0965                 1.1609
 Frc consts  --      0.9130                 0.9212                 0.9804
 IR Inten    --      0.0782                 0.1676                 0.0822

                     61                     62                     63
                      A                      A                      A
 Frequencies --   1211.7244              1232.9639              1235.1157
 Red. masses --      1.1615                 3.0109                 2.5048
 Frc consts  --      1.0048                 2.6968                 2.2513
 IR Inten    --      7.4793                16.5378                 1.1427

                     64                     65                     66
                      A                      A                      A
 Frequencies --   1283.3966              1299.8391              1342.3163
 Red. masses --      7.7917                 9.8754                 2.3805
 Frc consts  --      7.5614                 9.8307                 2.5272
 IR Inten    --    245.2310               189.8415                61.5043

                     67                     68                     69
                      A                      A                      A
 Frequencies --   1349.4732              1364.8756              1366.3455
 Red. masses --      1.7425                 2.6108                 3.1313
 Frc consts  --      1.8696                 2.8656                 3.4443
 IR Inten    --      3.3132                 3.3264                 4.1652

                     70                     71                     72
                      A                      A                      A
 Frequencies --   1380.7752              1421.7730              1483.9747
 Red. masses --      2.8274                 2.4373                 2.6204
 Frc consts  --      3.1760                 2.9028                 3.3999
 IR Inten    --    120.5288                71.7931                11.5927

                     73                     74                     75
                      A                      A                      A
 Frequencies --   1493.8895              1513.9056              1527.3160
 Red. masses --      2.1879                 2.6013                 2.0176
 Frc consts  --      2.8768                 3.5127                 2.7730
 IR Inten    --     32.3695                16.8968                11.5365

                     76                     77                     78
                      A                      A                      A
 Frequencies --   1549.3250              1604.2363              1644.3401
 Red. masses --      2.7936                 6.5195                 5.7757
 Frc consts  --      3.9510                 9.8856                 9.2011
 IR Inten    --    135.9329               163.7215                 1.3504

                     79                     80                     81
                      A                      A                      A
 Frequencies --   1645.3402              1654.6922              1657.6760
 Red. masses --      5.4119                 6.4121                 5.7583
 Frc consts  --      8.6320                10.3440                 9.3228
 IR Inten    --      0.8257                 7.3252                29.9638

                     82                     83                     84
                      A                      A                      A
 Frequencies --   3212.6632              3214.6637              3221.1135
 Red. masses --      1.0863                 1.0868                 1.0899
 Frc consts  --      6.6057                 6.6174                 6.6628
 IR Inten    --      0.1545                 8.7316                17.4016

                     85                     86                     87
                      A                      A                      A
 Frequencies --   3221.3389              3229.1351              3230.1831
 Red. masses --      1.0905                 1.0927                 1.0938
 Frc consts  --      6.6673                 6.7130                 6.7243
 IR Inten    --     15.8676                11.4931                41.2352

                     88                     89                     90
                      A                      A                      A
 Frequencies --   3236.1270              3238.5753              3251.1211
 Red. masses --      1.0963                 1.0959                 1.0935
 Frc consts  --      6.7644                 6.7724                 6.8096
 IR Inten    --     36.2784                12.6584                 7.8979

                     91                     92                     93
                      A                      A                      A
 Frequencies --   3253.9215              3339.6650              3516.1925
 Red. masses --      1.0933                 1.1004                 1.0768
 Frc consts  --      6.8206                 7.2313                 7.8435
 IR Inten    --      2.6218                 8.4756               196.1205

 - Thermochemistry -
 -------------------
 Temperature   298.150 Kelvin.  Pressure   1.00000 Atm.
 Atom     1 has atomic number  8 and mass  15.99491

 Molecular mass:   300.06810 amu.
 Principal axes and moments of inertia in atomic units:
                           1         2         3
     Eigenvalues --  1982.69835********************
           X            0.99999   0.00480  -0.00239
           Y           -0.00471   0.99928   0.03758
           Z            0.00257  -0.03757   0.99929
 This molecule is an asymmetric top.
 Rotational symmetry number  1.
 Warning -- assumption of classical behavior for rotation
           may cause significant error
 Rotational temperatures (Kelvin)      0.04368     0.00564     0.00525
 Rotational constants (GHZ):           0.91024     0.11762     0.10947
 Zero-point vibrational energy     651065.5 (Joules/Mol)
                                  155.60839 (Kcal/Mol)
 Warning -- explicit consideration of  25 degrees of freedom as
           vibrations may cause significant error
 Vibrational temperatures:     27.99    40.37    42.32    52.45   111.37
          (Kelvin)            121.89   161.91   183.99   246.37   326.96
                              360.00   390.96   442.10   452.99   496.35
                              542.68   560.23   592.37   602.43   607.78
                              672.48   716.14   769.86   794.02   816.86
                              900.72   903.03   955.61  1001.85  1006.10
                             1014.40  1023.29  1045.27  1104.21  1119.34
                             1125.99  1182.71  1228.73  1230.72  1250.28
                             1347.45  1375.74  1413.89  1430.40  1448.80
                             1453.77  1458.06  1467.91  1468.56  1509.55
                             1510.46  1536.58  1537.88  1559.21  1593.69
                             1601.68  1630.24  1709.46  1718.00  1722.53
                             1743.40  1773.96  1777.06  1846.52  1870.18
                             1931.29  1941.59  1963.75  1965.87  1986.63
                             2045.61  2135.11  2149.37  2178.17  2197.47
                             2229.13  2308.14  2365.84  2367.28  2380.73
                             2385.03  4622.31  4625.18  4634.46  4634.79
                             4646.01  4647.51  4656.06  4659.59  4677.64
                             4681.67  4805.03  5059.02

 Zero-point correction=                           0.247978 (Hartree/Particle)
 Thermal correction to Energy=                    0.265341
 Thermal correction to Enthalpy=                  0.266285
 Thermal correction to Gibbs Free Energy=         0.199426
 Sum of electronic and zero-point Energies=          -1308.021604
 Sum of electronic and thermal Energies=             -1308.004241
 Sum of electronic and thermal Enthalpies=           -1308.003297
 Sum of electronic and thermal Free Energies=        -1308.070156

                     E (Thermal)             CV                S
                      KCal/Mol        Cal/Mol-Kelvin    Cal/Mol-Kelvin
 Total                  166.504             66.935            140.718
 Electronic               0.000              0.000              0.000
 Translational            0.889              2.981             42.993
 Rotational               0.889              2.981             34.571
 Vibrational            164.727             60.973             63.153
 Vibration     1          0.593              1.986              6.689
 Vibration     2          0.593              1.984              5.962
 Vibration     3          0.593              1.984              5.869
 Vibration     4          0.594              1.982              5.443
 Vibration     5          0.599              1.964              3.956
 Vibration     6          0.601              1.960              3.779
 Vibration     7          0.607              1.939              3.225
 Vibration     8          0.611              1.925              2.978
 Vibration     9          0.626              1.878              2.422
 Vibration    10          0.651              1.799              1.901
 Vibration    11          0.663              1.762              1.729
 Vibration    12          0.675              1.725              1.585
 Vibration    13          0.697              1.660              1.377
 Vibration    14          0.702              1.645              1.337
 Vibration    15          0.723              1.585              1.189
 Vibration    16          0.748              1.519              1.050
 Vibration    17          0.757              1.493              1.003
 Vibration    18          0.776              1.445              0.921
 Vibration    19          0.782              1.430              0.896
 Vibration    20          0.785              1.421              0.884
 Vibration    21          0.825              1.322              0.745
 Vibration    22          0.853              1.255              0.664
 Vibration    23          0.890              1.172              0.576
 Vibration    24          0.907              1.136              0.540
 Vibration    25          0.924              1.101              0.509

                           ! Non-Optimized Parameters !
 Normal termination of Gaussian 16 at Wed Sep 23 06:23:39 2020.

 ----------------------------------------------------------------------
 #p b3lyp/6-31G(d) scrf=(iefpcm,read,solvent=water) geom=allcheck guess
 =read
 ----------------------------------------------------------------------

 Structure from the checkpoint file:  "SM45_m0.n.8.pdb.xyz.mst.n.w.chk"
 -------------------
 SM45_m0.n.8.pdb.xyz
 -------------------
 Charge =  0 Multiplicity = 1

 SCF Done:  E(RB3LYP) =  -1308.26957966     A.U. after    4 cycles
 Normal termination of Gaussian 16 at Wed Sep 23 06:24:05 2020.

 -----------------------------
 #p B3LYP/6-31G* geom=allcheck
 -----------------------------

 Structure from the checkpoint file:  "SM45_m0.n.8.pdb.xyz.mst.n.w.chk"
 -------------------
 SM45_m0.n.8.pdb.xyz
 -------------------
 Charge =  0 Multiplicity = 1

 SCF Done:  E(RB3LYP) =  -1308.24492136     A.U. after   15 cycles
 Normal termination of Gaussian 16 at Wed Sep 23 06:24:53 2020.
 Gaussian 16:  ES64L-G16RevB.01 20-Dec-2017

 ----------------------------------------------------------------------
 #p mp2/aug-cc-pVDZ scf=(MaxCycle=2000,NoVarAcc,NoIncFock) maxdisk=120G
 B geom=allcheck
 ----------------------------------------------------------------------

 Structure from the checkpoint file:  "SM45_m0.n.8.pdb.xyz.mst.n.w.chk"
 -------------------
 SM45_m0.n.8.pdb.xyz
 -------------------
 Charge =  0 Multiplicity = 1

                         Standard orientation:
 ---------------------------------------------------------------------
 Center     Atomic      Atomic             Coordinates (Angstroms)
 Number     Number       Type             X           Y           Z
 ---------------------------------------------------------------------
      1          8           0        1.528162   -0.841504    1.756674
      2         16           0        2.126943   -1.205462    0.464987
      3          7           0        0.952965   -1.008688   -0.748380
      4          6           0       -0.271913   -0.390220   -0.458964
      5          7           0       -0.348622    0.929542   -0.136186
      6          7           0       -1.604768    1.249259    0.040764
      7          6           0       -1.546583   -0.914545   -0.492026
      8          7           0       -2.344139    0.141676   -0.189443
      9          6           0       -3.765580    0.186011   -0.099054
     10          6           0       -4.533626   -0.710209   -0.845249
     11          6           0       -5.923097   -0.664318   -0.739998
     12          6           0       -6.537771    0.275296    0.089821
     13          6           0       -5.756158    1.171656    0.822881
     14          6           0       -4.366118    1.128504    0.738440
     15          6           0        3.383443   -0.003314    0.060390
     16          6           0        3.045756    1.350529   -0.007893
     17          6           0        4.053520    2.273936   -0.273827
     18          6           0        5.371271    1.845354   -0.460244
     19          6           0        5.688830    0.488533   -0.387076
     20          6           0        4.690555   -0.450723   -0.124830
     21          8           0        2.695576   -2.546278    0.270041
     22          1           0        0.887832   -1.856161   -1.312011
     23          1           0       -1.919516   -1.905505   -0.684064
     24          1           0       -4.054448   -1.422589   -1.506264
     25          1           0       -6.522956   -1.359360   -1.317098
     26          1           0       -7.619104    0.308970    0.164623
     27          1           0       -6.226671    1.901904    1.471939
     28          1           0       -3.746970    1.807016    1.310721
     29          1           0        2.015870    1.665462    0.121117
     30          1           0        3.809731    3.328475   -0.336935
     31          1           0        6.150042    2.571583   -0.666113
     32          1           0        6.710545    0.157439   -0.534569
     33          1           0        4.911422   -1.509053   -0.066379
 ---------------------------------------------------------------------

 SCF Done:  E(RHF) =  -1302.16059123     A.U. after   17 cycles
 E2 =    -0.3134859455D+01 EUMP2 =    -0.13052954506857D+04

 The electronic state is 1-A.
 Alpha  occ. eigenvalues --  -92.22911 -20.56289 -20.55787 -15.69019 -15.66487
 Alpha  occ. eigenvalues --  -15.62805 -15.62133 -11.32347 -11.31649 -11.30487
 Alpha  occ. eigenvalues --  -11.28336 -11.26991 -11.26747 -11.26696 -11.26497
 Alpha  occ. eigenvalues --  -11.26424 -11.26391 -11.26293 -11.26094 -11.25737
 Alpha  occ. eigenvalues --  -11.25661  -9.19699  -6.88233  -6.88197  -6.88062
 Alpha  occ. eigenvalues --   -1.46343  -1.45671  -1.33871  -1.27443  -1.23818
 Alpha  occ. eigenvalues --   -1.17784  -1.16740  -1.09224  -1.05427  -1.04479
 Alpha  occ. eigenvalues --   -1.03933  -1.03785  -0.92496  -0.90831  -0.87325
 Alpha  occ. eigenvalues --   -0.85056  -0.83775  -0.82777  -0.80175  -0.76917
 Alpha  occ. eigenvalues --   -0.73889  -0.72214  -0.70615  -0.68886  -0.67707
 Alpha  occ. eigenvalues --   -0.67113  -0.66601  -0.65097  -0.63665  -0.63231
 Alpha  occ. eigenvalues --   -0.62400  -0.62271  -0.61327  -0.60813  -0.55102
 Alpha  occ. eigenvalues --   -0.54156  -0.53782  -0.53549  -0.52947  -0.52249
 Alpha  occ. eigenvalues --   -0.51966  -0.51375  -0.49771  -0.48744  -0.46844
 Alpha  occ. eigenvalues --   -0.46171  -0.45548  -0.43893  -0.36647  -0.36080
 Alpha  occ. eigenvalues --   -0.35935  -0.35216  -0.33141
 Alpha virt. eigenvalues --    0.02578   0.03237   0.03418   0.04127   0.04413
 Alpha virt. eigenvalues --    0.05131   0.05359   0.05452   0.06667   0.06896
 Alpha virt. eigenvalues --    0.07534   0.07673   0.08160   0.08834   0.08909

 Mulliken charges:
               1
     1  O   -1.151723
     2  S    2.893105
     3  N   -0.903396
     4  C    0.157021
     5  N   -0.459633
     6  N   -0.527667
     7  C    1.533652
     8  N   -0.686902
     9  C    0.811337
    10  C    0.113322
    11  C    0.741448
    12  C    0.600309
    13  C    0.551876
    14  C    0.446398
    15  C    1.041547
    16  C    0.057507
    17  C    0.545200
    18  C    0.389130
    19  C    0.677901
    20  C   -0.210384
    21  O   -1.183032
    22  H   -0.056363
    23  H   -0.479344
    24  H   -0.654060
    25  H   -0.434850
    26  H   -0.443384
    27  H   -0.430869
    28  H   -0.520094
    29  H   -0.516856
    30  H   -0.483993
    31  H   -0.440278
    32  H   -0.447329
    33  H   -0.529597
 Sum of Mulliken charges =  -0.00000

 Dipole moment (field-independent basis, Debye):
    X=             -2.8750    Y=              0.3636    Z=             -3.6620  Tot=              4.6699
 Quadrupole moment (field-independent basis, Debye-Ang):
   XX=            -90.2189   YY=           -129.1410   ZZ=           -136.8334
   XY=             14.1841   XZ=             -5.6738   YZ=             10.1296

 Normal termination of Gaussian 16 at Wed Sep 23 07:16:36 2020.
