 Gaussian 16, Revision B.01,

 ----------------------------------------------------------------------
 #p b3lyp/6-31G(d) opt freq NoSymm scf=(MaxCycle=2000,NoVarAcc,NoIncFoc
 k) scrf=(iefpcm,read,solvent=water)
 ----------------------------------------------------------------------

 -------------------
 SM45_m2.b.4.pdb.xyz
 -------------------
 Symbolic Z-matrix:
 Charge =  1 Multiplicity = 1

 SCF Done:  E(RB3LYP) =  -1308.69526255     A.U. after   13 cycles
 SCF Done:  E(RB3LYP) =  -1308.70854411     A.U. after   13 cycles
 SCF Done:  E(RB3LYP) =  -1308.71301680     A.U. after   10 cycles
 SCF Done:  E(RB3LYP) =  -1308.71434689     A.U. after   11 cycles
 SCF Done:  E(RB3LYP) =  -1308.71532141     A.U. after   11 cycles
 SCF Done:  E(RB3LYP) =  -1308.71560714     A.U. after   10 cycles
 SCF Done:  E(RB3LYP) =  -1308.71571446     A.U. after   10 cycles
 SCF Done:  E(RB3LYP) =  -1308.71580323     A.U. after   10 cycles
 SCF Done:  E(RB3LYP) =  -1308.71586368     A.U. after   10 cycles
 SCF Done:  E(RB3LYP) =  -1308.71594112     A.U. after    8 cycles
 SCF Done:  E(RB3LYP) =  -1308.71610417     A.U. after    7 cycles
 SCF Done:  E(RB3LYP) =  -1308.71611125     A.U. after    7 cycles
 SCF Done:  E(RB3LYP) =  -1308.71611130     A.U. after    7 cycles
 SCF Done:  E(RB3LYP) =  -1308.71611205     A.U. after    7 cycles
 SCF Done:  E(RB3LYP) =  -1308.71611169     A.U. after    6 cycles
 SCF Done:  E(RB3LYP) =  -1308.71611137     A.U. after    7 cycles
 Optimization completed.
    -- Stationary point found.
 Normal termination of Gaussian 16 at Thu Sep 24 15:21:16 2020.

 --------------------------------------------------------------------
 #P Geom=AllCheck Guess=TCheck SCRF=Check GenChk RB3LYP/6-31G(d) Freq
 --------------------------------------------------------------------

 Structure from the checkpoint file:  "SM45_m2.b.4.pdb.xyz.mst.b.w.chk"
 -------------------
 SM45_m2.b.4.pdb.xyz
 -------------------
 Charge =  1 Multiplicity = 1

 SCF Done:  E(RB3LYP) =  -1308.71611137     A.U. after    1 cycles

  Exact polarizability: 373.822  13.176 222.933 -33.034  43.172 175.827
 Approx polarizability: 384.796   6.765 286.590 -40.605  59.829 217.964

                      1                      2                      3
                      A                      A                      A
 Frequencies --     16.5186                18.7364                26.4568
 Red. masses --      5.1753                 6.0500                 4.2884
 Frc consts  --      0.0008                 0.0013                 0.0018
 IR Inten    --      0.3359                 0.4338                 0.1651

                      4                      5                      6
                      A                      A                      A
 Frequencies --     33.7691                69.0789                91.8343
 Red. masses --      4.5074                 6.7822                 4.8511
 Frc consts  --      0.0030                 0.0191                 0.0241
 IR Inten    --      1.9952                 4.9685                 7.9929

                      7                      8                      9
                      A                      A                      A
 Frequencies --    112.0375               130.1982               180.3489
 Red. masses --      5.4001                 7.3912                 6.3546
 Frc consts  --      0.0399                 0.0738                 0.1218
 IR Inten    --      5.7069                 4.5237                 1.0639

                     10                     11                     12
                      A                      A                      A
 Frequencies --    215.7695               250.4887               281.3506
 Red. masses --      5.1866                 5.8844                 6.1247
 Frc consts  --      0.1423                 0.2175                 0.2856
 IR Inten    --      3.4264                 2.5617                 3.6619

                     13                     14                     15
                      A                      A                      A
 Frequencies --    287.7277               311.7203               370.1305
 Red. masses --      5.5217                 8.5087                 7.0074
 Frc consts  --      0.2693                 0.4871                 0.5656
 IR Inten    --     13.0779                 5.3627                 8.1663

                     16                     17                     18
                      A                      A                      A
 Frequencies --    387.7502               407.8507               412.9033
 Red. masses --      4.1930                 5.1975                 3.1851
 Frc consts  --      0.3714                 0.5094                 0.3199
 IR Inten    --      6.2091                28.0889                 5.2492

                     19                     20                     21
                      A                      A                      A
 Frequencies --    418.1467               451.5476               476.5226
 Red. masses --      2.9854                 5.7455                 4.6113
 Frc consts  --      0.3075                 0.6902                 0.6169
 IR Inten    --      0.2810                 3.8235                 5.8418

                     22                     23                     24
                      A                      A                      A
 Frequencies --    498.9780               538.9112               557.5135
 Red. masses --      3.5237                 3.4216                 6.0682
 Frc consts  --      0.5169                 0.5855                 1.1113
 IR Inten    --     11.8278                52.6207               242.0310

                     25                     26                     27
                      A                      A                      A
 Frequencies --    578.0481               624.3310               626.0386
 Red. masses --      7.8009                 6.4484                 6.4061
 Frc consts  --      1.5358                 1.4809                 1.4793
 IR Inten    --    300.2333                 0.0711                 1.7273

                     28                     29                     30
                      A                      A                      A
 Frequencies --    669.7758               686.3369               693.5732
 Red. masses --      2.6757                 3.6299                 2.5543
 Frc consts  --      0.7072                 1.0074                 0.7239
 IR Inten    --      9.5842                26.7695                41.1018

                     31                     32                     33
                      A                      A                      A
 Frequencies --    699.8082               701.6855               713.2863
 Red. masses --      3.5348                 2.7625                 1.5693
 Frc consts  --      1.0199                 0.8014                 0.4704
 IR Inten    --     50.8554                54.0579               103.1577

                     34                     35                     36
                      A                      A                      A
 Frequencies --    728.0015               763.5916               780.0424
 Red. masses --      6.6665                 1.4449                 1.6158
 Frc consts  --      2.0817                 0.4964                 0.5792
 IR Inten    --    117.9862                27.8172                78.6743

                     37                     38                     39
                      A                      A                      A
 Frequencies --    792.8818               824.0497               830.9452
 Red. masses --      1.8762                 2.1751                 4.2195
 Frc consts  --      0.6949                 0.8702                 1.7166
 IR Inten    --     62.0366                19.4965               330.4061

                     40                     41                     42
                      A                      A                      A
 Frequencies --    852.2900               857.4842               944.7753
 Red. masses --      1.2537                 1.2462                 1.3706
 Frc consts  --      0.5366                 0.5399                 0.7208
 IR Inten    --      0.0252                 0.1901                 6.3989

                     43                     44                     45
                      A                      A                      A
 Frequencies --    949.6190               986.2260               990.2991
 Red. masses --      1.3052                 1.3494                 1.3563
 Frc consts  --      0.6935                 0.7733                 0.7837
 IR Inten    --      1.2429                 0.4587                 0.1081

                     46                     47                     48
                      A                      A                      A
 Frequencies --   1008.0315              1013.3029              1017.4036
 Red. masses --      8.0996                 6.4907                 1.2865
 Frc consts  --      4.8491                 3.9267                 0.7846
 IR Inten    --     18.1867                 7.3350                 0.2029

                     49                     50                     51
                      A                      A                      A
 Frequencies --   1022.4326              1023.3702              1047.3554
 Red. masses --      6.3443                 1.2975                 3.0215
 Frc consts  --      3.9075                 0.8006                 1.9528
 IR Inten    --      0.8155                 0.3462                 8.7103

                     52                     53                     54
                      A                      A                      A
 Frequencies --   1054.1444              1075.2172              1082.1789
 Red. masses --      2.1888                 2.8225                 3.1910
 Frc consts  --      1.4331                 1.9225                 2.2018
 IR Inten    --      5.0864               112.4326                49.9630

                     55                     56                     57
                      A                      A                      A
 Frequencies --   1110.9328              1111.1439              1114.1607
 Red. masses --      1.7139                 2.2308                 1.5681
 Frc consts  --      1.2463                 1.6228                 1.1469
 IR Inten    --      3.6496                23.8643                16.1959

                     58                     59                     60
                      A                      A                      A
 Frequencies --   1136.3359              1192.0149              1195.6331
 Red. masses --      6.3417                 1.0948                 1.0951
 Frc consts  --      4.8247                 0.9166                 0.9223
 IR Inten    --    290.8548                 0.2447                 0.2007

                     61                     62                     63
                      A                      A                      A
 Frequencies --   1203.7341              1206.3852              1224.0193
 Red. masses --      1.1388                 1.1697                 2.0059
 Frc consts  --      0.9722                 1.0030                 1.7707
 IR Inten    --      3.6549                 1.3743                73.1849

                     64                     65                     66
                      A                      A                      A
 Frequencies --   1248.5447              1295.3324              1343.1228
 Red. masses --      3.2089                 8.5948                 1.4574
 Frc consts  --      2.9473                 8.4966                 1.5491
 IR Inten    --     21.1545               206.5190                 1.0402

                     67                     68                     69
                      A                      A                      A
 Frequencies --   1347.2297              1352.0195              1366.0746
 Red. masses --      2.5822                 2.7674                 6.2636
 Frc consts  --      2.7613                 2.9805                 6.8868
 IR Inten    --     28.6811               108.1125                 0.9820

                     70                     71                     72
                      A                      A                      A
 Frequencies --   1368.7016              1399.7636              1427.2934
 Red. masses --      3.1667                 2.1625                 3.1830
 Frc consts  --      3.4953                 2.4965                 3.8204
 IR Inten    --      4.0500                71.9232               102.0115

                     73                     74                     75
                      A                      A                      A
 Frequencies --   1475.4886              1493.9208              1506.3271
 Red. masses --      2.5288                 2.1951                 2.1446
 Frc consts  --      3.2437                 2.8864                 2.8670
 IR Inten    --      3.9216                24.0984                38.0919

                     76                     77                     78
                      A                      A                      A
 Frequencies --   1519.8048              1521.5788              1543.4479
 Red. masses --      2.5977                 2.0658                 2.4497
 Frc consts  --      3.5353                 2.8180                 3.4384
 IR Inten    --     12.3708                 4.0339                36.9930

                     79                     80                     81
                      A                      A                      A
 Frequencies --   1640.9137              1645.2572              1649.9854
 Red. masses --      5.4626                 5.9039                 5.2426
 Frc consts  --      8.6660                 9.4159                 8.4092
 IR Inten    --      4.6261                 0.1599               228.7288

                     82                     83                     84
                      A                      A                      A
 Frequencies --   1654.2643              1665.5472              3219.1486
 Red. masses --      5.5928                 5.1443                 1.0870
 Frc consts  --      9.0175                 8.4080                 6.6367
 IR Inten    --     51.6140               287.0943                 0.3719

                     85                     86                     87
                      A                      A                      A
 Frequencies --   3219.7442              3229.0088              3230.5046
 Red. masses --      1.0870                 1.0901                 1.0897
 Frc consts  --      6.6394                 6.6965                 6.7003
 IR Inten    --      1.6687                13.1255                13.6095

                     88                     89                     90
                      A                      A                      A
 Frequencies --   3236.4198              3237.5181              3245.5551
 Red. masses --      1.0938                 1.0937                 1.0955
 Frc consts  --      6.7505                 6.7540                 6.7992
 IR Inten    --     30.4404                18.8662                 7.2555

                     91                     92                     93
                      A                      A                      A
 Frequencies --   3246.8113              3252.5134              3254.4798
 Red. masses --      1.0953                 1.0947                 1.0939
 Frc consts  --      6.8027                 6.8234                 6.8261
 IR Inten    --      8.6714                 1.9546                 5.7389

                     94                     95                     96
                      A                      A                      A
 Frequencies --   3358.6638              3506.0100              3552.4458
 Red. masses --      1.1017                 1.0768                 1.0863
 Frc consts  --      7.3220                 7.7983                 8.0774
 IR Inten    --     27.0660               225.7602               522.6410

 - Thermochemistry -
 -------------------
 Temperature   298.150 Kelvin.  Pressure   1.00000 Atm.
 Atom     1 has atomic number  8 and mass  15.99491

 Molecular mass:   301.07592 amu.
 Principal axes and moments of inertia in atomic units:
                           1         2         3
     Eigenvalues --  1707.61553********************
           X            0.99918  -0.03977   0.00737
           Y            0.04045   0.98472  -0.16938
           Z           -0.00052   0.16954   0.98552
 This molecule is an asymmetric top.
 Rotational symmetry number  1.
 Warning -- assumption of classical behavior for rotation
           may cause significant error
 Rotational temperatures (Kelvin)      0.05072     0.00509     0.00502
 Rotational constants (GHZ):           1.05688     0.10604     0.10469
 Zero-point vibrational energy     687437.8 (Joules/Mol)
                                  164.30157 (Kcal/Mol)
 Warning -- explicit consideration of  25 degrees of freedom as
           vibrations may cause significant error
 Vibrational temperatures:     23.77    26.96    38.07    48.59    99.39
          (Kelvin)            132.13   161.20   187.33   259.48   310.44
                              360.40   404.80   413.98   448.50   532.54
                              557.89   586.81   594.08   601.62   649.68
                              685.61   717.92   775.37   802.14   831.68
                              898.27   900.73   963.66   987.49   997.90
                             1006.87  1009.57  1026.26  1047.43  1098.64
                             1122.31  1140.78  1185.62  1195.54  1226.26
                             1233.73  1359.32  1366.29  1418.96  1424.82
                             1450.33  1457.92  1463.82  1471.05  1472.40
                             1506.91  1516.68  1547.00  1557.01  1598.38
                             1598.69  1603.03  1634.93  1715.04  1720.25
                             1731.90  1735.72  1761.09  1796.38  1863.69
                             1932.45  1938.36  1945.25  1965.48  1969.26
                             2013.95  2053.56  2122.90  2149.42  2167.27
                             2186.66  2189.21  2220.68  2360.91  2367.16
                             2373.96  2380.12  2396.35  4631.64  4632.49
                             4645.82  4647.98  4656.49  4658.07  4669.63
                             4671.44  4679.64  4682.47  4832.37  5044.37
                             5111.18

 Zero-point correction=                           0.261831 (Hartree/Particle)
 Thermal correction to Energy=                    0.279265
 Thermal correction to Enthalpy=                  0.280209
 Thermal correction to Gibbs Free Energy=         0.212620
 Sum of electronic and zero-point Energies=          -1308.454280
 Sum of electronic and thermal Energies=             -1308.436847
 Sum of electronic and thermal Enthalpies=           -1308.435902
 Sum of electronic and thermal Free Energies=        -1308.503492

                     E (Thermal)             CV                S
                      KCal/Mol        Cal/Mol-Kelvin    Cal/Mol-Kelvin
 Total                  175.241             67.573            142.254
 Electronic               0.000              0.000              0.000
 Translational            0.889              2.981             43.003
 Rotational               0.889              2.981             34.570
 Vibrational            173.464             61.611             64.680
 Vibration     1          0.593              1.986              7.014
 Vibration     2          0.593              1.986              6.764
 Vibration     3          0.593              1.985              6.079
 Vibration     4          0.594              1.983              5.595
 Vibration     5          0.598              1.969              4.179
 Vibration     6          0.602              1.955              3.621
 Vibration     7          0.607              1.939              3.233
 Vibration     8          0.612              1.923              2.943
 Vibration     9          0.629              1.866              2.325
 Vibration    10          0.645              1.817              1.994
 Vibration    11          0.663              1.762              1.727
 Vibration    12          0.681              1.708              1.525
 Vibration    13          0.685              1.697              1.487
 Vibration    14          0.700              1.651              1.353
 Vibration    15          0.742              1.534              1.079
 Vibration    16          0.756              1.496              1.009
 Vibration    17          0.772              1.453              0.934
 Vibration    18          0.777              1.442              0.916
 Vibration    19          0.781              1.431              0.898
 Vibration    20          0.810              1.357              0.791
 Vibration    21          0.833              1.302              0.720
 Vibration    22          0.854              1.252              0.661
 Vibration    23          0.894              1.164              0.568
 Vibration    24          0.913              1.123              0.529
 Vibration    25          0.935              1.079              0.489

 Optimization completed.
    -- Stationary point found.
 Normal termination of Gaussian 16 at Thu Sep 24 15:32:41 2020.

 ----------------------------------------------------------------------
 #p b3lyp/6-31G(d) scrf=(iefpcm,read,solvent=water) geom=allcheck guess
 =read
 ----------------------------------------------------------------------

 Structure from the checkpoint file:  "SM45_m2.b.4.pdb.xyz.mst.b.w.chk"
 -------------------
 SM45_m2.b.4.pdb.xyz
 -------------------
 Charge =  1 Multiplicity = 1

 SCF Done:  E(RB3LYP) =  -1308.71586065     A.U. after    7 cycles
 Normal termination of Gaussian 16 at Thu Sep 24 15:33:25 2020.

 -----------------------------
 #p B3LYP/6-31G* geom=allcheck
 -----------------------------

 Structure from the checkpoint file:  "SM45_m2.b.4.pdb.xyz.mst.b.w.chk"
 -------------------
 SM45_m2.b.4.pdb.xyz
 -------------------
 Charge =  1 Multiplicity = 1

 SCF Done:  E(RB3LYP) =  -1308.62092750     A.U. after   16 cycles

 The electronic state is 1-A.
 Alpha  occ. eigenvalues --  -89.24771 -19.27954 -19.27632 -14.63380 -14.61884
 Alpha  occ. eigenvalues --  -14.59543 -14.53938 -10.46527 -10.41649 -10.38494
 Alpha  occ. eigenvalues --  -10.34439 -10.33862 -10.33326 -10.32426 -10.32357
 Alpha  occ. eigenvalues --  -10.32244 -10.32155 -10.32014 -10.31051 -10.30976
 Alpha  occ. eigenvalues --  -10.30820  -8.27374  -6.23964  -6.23753  -6.23589
 Alpha  occ. eigenvalues --   -1.32195  -1.24631  -1.14660  -1.13342  -1.10226
 Alpha  occ. eigenvalues --   -1.00135  -0.99866  -0.98297  -0.92260  -0.89554
 Alpha  occ. eigenvalues --   -0.88684  -0.87018  -0.84841  -0.83889  -0.81140
 Alpha  occ. eigenvalues --   -0.75646  -0.74662  -0.73591  -0.73050  -0.71971
 Alpha  occ. eigenvalues --   -0.69895  -0.68223  -0.68113  -0.66687  -0.64808
 Alpha  occ. eigenvalues --   -0.63182  -0.62501  -0.59987  -0.59103  -0.58611
 Alpha  occ. eigenvalues --   -0.57106  -0.56450  -0.56120  -0.56029  -0.54583
 Alpha  occ. eigenvalues --   -0.54416  -0.52366  -0.50838  -0.49433  -0.49311
 Alpha  occ. eigenvalues --   -0.49012  -0.48256  -0.48063  -0.48039  -0.46807
 Alpha  occ. eigenvalues --   -0.45225  -0.44117  -0.43276  -0.41286  -0.38746
 Alpha  occ. eigenvalues --   -0.38553  -0.37744  -0.37226
 Alpha virt. eigenvalues --   -0.21376  -0.16275  -0.14738  -0.13624  -0.12355
 Alpha virt. eigenvalues --   -0.12107  -0.08435  -0.07716  -0.04880  -0.04218
 Alpha virt. eigenvalues --   -0.03278  -0.02601  -0.01982  -0.01662   0.01304

 Mulliken charges:
               1
     1  O   -0.541584
     2  S    1.211553
     3  N   -0.795357
     4  C    0.555923
     5  N   -0.399212
     6  N    0.028607
     7  C    0.034191
     8  N   -0.329771
     9  C    0.301527
    10  C   -0.153681
    11  C   -0.136651
    12  C   -0.102693
    13  C   -0.136771
    14  C   -0.131457
    15  C   -0.161186
    16  C   -0.120931
    17  C   -0.124125
    18  C   -0.109963
    19  C   -0.123291
    20  C   -0.135129
    21  O   -0.477215
    22  H    0.388733
    23  H    0.250011
    24  H    0.164100
    25  H    0.181121
    26  H    0.183136
    27  H    0.184206
    28  H    0.190524
    29  H    0.160430
    30  H    0.173148
    31  H    0.177610
    32  H    0.177619
    33  H    0.198668
    34  H    0.417907
 Sum of Mulliken charges =   1.00000

 Dipole moment (field-independent basis, Debye):
    X=             -4.2146    Y=             -0.0712    Z=             -4.9592  Tot=              6.5086
 Quadrupole moment (field-independent basis, Debye-Ang):
   XX=            -23.1166   YY=           -109.2635   ZZ=           -127.5632
   XY=              5.5121   XZ=            -11.1965   YZ=              6.9998

 Normal termination of Gaussian 16 at Thu Sep 24 15:34:19 2020.
 Gaussian 16:  ES64L-G16RevB.01 20-Dec-2017

 ----------------------------------------------------------------------
 #p mp2/aug-cc-pVDZ scf=(MaxCycle=2000,NoVarAcc,NoIncFock) maxdisk=120G
 B geom=allcheck
 ----------------------------------------------------------------------

 Structure from the checkpoint file:  "SM45_m2.b.4.pdb.xyz.mst.b.w.chk"
 -------------------
 SM45_m2.b.4.pdb.xyz
 -------------------
 Charge =  1 Multiplicity = 1

                         Standard orientation:
 ---------------------------------------------------------------------
 Center     Atomic      Atomic             Coordinates (Angstroms)
 Number     Number       Type             X           Y           Z
 ---------------------------------------------------------------------
      1          8           0        1.617060    0.752602    1.697385
      2         16           0        2.066179   -0.418080    0.937584
      3          7           0        0.950374   -0.545170   -0.375243
      4          6           0       -0.346695   -0.093733   -0.223457
      5          7           0       -0.679215    1.206176    0.004685
      6          7           0       -1.978659    1.410062    0.044821
      7          6           0       -1.557313   -0.746611   -0.341268
      8          7           0       -2.501749    0.219106   -0.180203
      9          6           0       -3.926868    0.061681   -0.205783
     10          6           0       -4.484684   -0.904360   -1.042045
     11          6           0       -5.870320   -1.054825   -1.054397
     12          6           0       -6.674136   -0.244763   -0.249967
     13          6           0       -6.093682    0.720673    0.576604
     14          6           0       -4.710089    0.878381    0.609199
     15          6           0        3.587826   -0.068441    0.089387
     16          6           0        3.827371    1.230101   -0.367186
     17          6           0        5.028597    1.491271   -1.020372
     18          6           0        5.963256    0.469013   -1.207411
     19          6           0        5.707239   -0.821081   -0.739780
     20          6           0        4.510249   -1.101142   -0.081681
     21          8           0        2.182558   -1.722805    1.595738
     22          1           0        1.012180   -1.461656   -0.824966
     23          1           0       -1.789755   -1.783889   -0.503304
     24          1           0       -3.856554   -1.511982   -1.681841
     25          1           0       -6.318260   -1.799927   -1.701736
     26          1           0       -7.751459   -0.365626   -0.266580
     27          1           0       -6.715188    1.346721    1.206397
     28          1           0       -4.241864    1.609557    1.255606
     29          1           0        3.097592    2.014883   -0.209985
     30          1           0        5.236048    2.492305   -1.380146
     31          1           0        6.896395    0.681522   -1.717155
     32          1           0        6.437440   -1.609292   -0.882454
     33          1           0        4.292377   -2.091197    0.298071
     34          1           0       -0.054518    2.001269    0.152283
 ---------------------------------------------------------------------

 SCF Done:  E(RHF) =  -1302.53373261     A.U. after   17 cycles
