 Gaussian 16, Revision B.01,

 ----------------------------------------------------------------------
 #p b3lyp/6-31G(d) opt freq NoSymm scf=(MaxCycle=2000,NoVarAcc,NoIncFoc
 k) scrf=(iefpcm,read,solvent=water)
 ----------------------------------------------------------------------

 -------------------
 SM45_m1.a.3.pdb.xyz
 -------------------
 Symbolic Z-matrix:
 Charge = -1 Multiplicity = 1

 SCF Done:  E(RB3LYP) =  -1307.79826079     A.U. after   13 cycles
 SCF Done:  E(RB3LYP) =  -1307.79817588     A.U. after   10 cycles
 SCF Done:  E(RB3LYP) =  -1307.79811424     A.U. after   10 cycles
 SCF Done:  E(RB3LYP) =  -1307.79825708     A.U. after   10 cycles
 SCF Done:  E(RB3LYP) =  -1307.79826227     A.U. after    9 cycles
 SCF Done:  E(RB3LYP) =  -1307.79808738     A.U. after   10 cycles
 SCF Done:  E(RB3LYP) =  -1307.79807049     A.U. after    9 cycles
 SCF Done:  E(RB3LYP) =  -1307.79825478     A.U. after   10 cycles
 SCF Done:  E(RB3LYP) =  -1307.79826219     A.U. after    9 cycles
 SCF Done:  E(RB3LYP) =  -1307.79810600     A.U. after   10 cycles
 SCF Done:  E(RB3LYP) =  -1307.79825427     A.U. after   10 cycles
 SCF Done:  E(RB3LYP) =  -1307.79826217     A.U. after    9 cycles
 SCF Done:  E(RB3LYP) =  -1307.79805718     A.U. after   10 cycles
 SCF Done:  E(RB3LYP) =  -1307.79805465     A.U. after    7 cycles
 SCF Done:  E(RB3LYP) =  -1307.79825422     A.U. after   10 cycles
 SCF Done:  E(RB3LYP) =  -1307.79805358     A.U. after   10 cycles
 Optimization completed on the basis of negligible forces.
    -- Stationary point found.
 Normal termination of Gaussian 16 at Thu Sep 24 15:12:07 2020.

 --------------------------------------------------------------------
 #P Geom=AllCheck Guess=TCheck SCRF=Check GenChk RB3LYP/6-31G(d) Freq
 --------------------------------------------------------------------

 Structure from the checkpoint file:  "SM45_m1.a.3.pdb.xyz.mst.a.w.chk"
 -------------------
 SM45_m1.a.3.pdb.xyz
 -------------------
 Charge = -1 Multiplicity = 1

 SCF Done:  E(RB3LYP) =  -1307.79805358     A.U. after    1 cycles

  Exact polarizability: 326.953   0.728 210.425 -19.847  43.614 266.978
 Approx polarizability: 340.489   5.777 244.867 -19.632  46.640 341.306

                      1                      2                      3
                      A                      A                      A
 Frequencies --     15.2830                22.4150                33.2637
 Red. masses --      5.4161                 4.1235                 4.3581
 Frc consts  --      0.0007                 0.0012                 0.0028
 IR Inten    --      4.2957                 1.4477                 1.8547

                      4                      5                      6
                      A                      A                      A
 Frequencies --     56.6272                80.1092                86.0380
 Red. masses --      7.1193                 5.2027                 7.1870
 Frc consts  --      0.0135                 0.0197                 0.0313
 IR Inten    --      2.1828                 8.4894                 0.3553

                      7                      8                      9
                      A                      A                      A
 Frequencies --    125.2404               149.9071               184.1298
 Red. masses --      8.3076                 6.4049                 6.6796
 Frc consts  --      0.0768                 0.0848                 0.1334
 IR Inten    --      1.4035                 0.2488                 2.7902

                     10                     11                     12
                      A                      A                      A
 Frequencies --    231.7965               255.4322               279.4406
 Red. masses --      5.8818                 6.4164                 8.0929
 Frc consts  --      0.1862                 0.2467                 0.3723
 IR Inten    --      6.1606                 9.4319                 7.6609

                     13                     14                     15
                      A                      A                      A
 Frequencies --    305.7624               327.3471               372.6992
 Red. masses --      7.7688                 8.6717                 7.6362
 Frc consts  --      0.4279                 0.5475                 0.6249
 IR Inten    --      5.6241                 8.2264                13.0039

                     16                     17                     18
                      A                      A                      A
 Frequencies --    392.9624               413.9939               418.6754
 Red. masses --      8.1620                 2.9844                 3.0531
 Frc consts  --      0.7426                 0.3014                 0.3153
 IR Inten    --      1.9301                 0.4532                 0.2027

                     19                     20                     21
                      A                      A                      A
 Frequencies --    442.4456               463.5190               494.3531
 Red. masses --     10.3403                 6.7967                 4.4048
 Frc consts  --      1.1926                 0.8604                 0.6342
 IR Inten    --      5.2168                24.3450                11.7480

                     22                     23                     24
                      A                      A                      A
 Frequencies --    531.0258               548.6302               587.9196
 Red. masses --      3.5988                13.7361                 6.8536
 Frc consts  --      0.5979                 2.4360                 1.3957
 IR Inten    --     35.4283               182.9826               193.2914

                     25                     26                     27
                      A                      A                      A
 Frequencies --    627.6017               628.3880               669.7443
 Red. masses --      6.4313                 6.4103                 3.5369
 Frc consts  --      1.4925                 1.4914                 0.9347
 IR Inten    --      0.1284                 0.0678                 6.9367

                     28                     29                     30
                      A                      A                      A
 Frequencies --    693.1093               695.7800               702.3012
 Red. masses --      3.0906                 4.3664                 2.5418
 Frc consts  --      0.8748                 1.2454                 0.7387
 IR Inten    --     11.2491                 6.3197                52.5851

                     31                     32                     33
                      A                      A                      A
 Frequencies --    705.2498               708.8585               740.1020
 Red. masses --      2.3426                 6.6073                 2.6709
 Frc consts  --      0.6865                 1.9561                 0.8620
 IR Inten    --     19.6200                25.4221               105.3617

                     34                     35                     36
                      A                      A                      A
 Frequencies --    751.5121               762.5322               777.2543
 Red. masses --      8.2841                 1.5557                 1.6561
 Frc consts  --      2.7566                 0.5330                 0.5895
 IR Inten    --    165.4407                39.8461                56.3904

                     37                     38                     39
                      A                      A                      A
 Frequencies --    853.7870               861.2136               930.1110
 Red. masses --      1.2514                 1.2474                 5.7944
 Frc consts  --      0.5375                 0.5451                 2.9534
 IR Inten    --      0.2586                 0.1511               164.9684

                     40                     41                     42
                      A                      A                      A
 Frequencies --    931.2686               936.2215               980.5624
 Red. masses --      1.4299                 1.4450                 1.3429
 Frc consts  --      0.7306                 0.7462                 0.7607
 IR Inten    --     14.1088                19.3113                 0.1379

                     43                     44                     45
                      A                      A                      A
 Frequencies --    983.3001               998.6148              1006.8336
 Red. masses --      1.3521                 7.4796                 1.2603
 Frc consts  --      0.7702                 4.3946                 0.7528
 IR Inten    --      0.4533                52.7450                 0.3482

                     46                     47                     48
                      A                      A                      A
 Frequencies --   1010.0966              1014.6885              1018.1008
 Red. masses --      1.2598                 6.4866                 5.9677
 Frc consts  --      0.7573                 3.9349                 3.6445
 IR Inten    --      0.0456                 8.1570                 0.9949

                     49                     50                     51
                      A                      A                      A
 Frequencies --   1045.5809              1051.3683              1055.8657
 Red. masses --      4.5461                 2.6077                 2.9381
 Frc consts  --      2.9282                 1.6983                 1.9299
 IR Inten    --     72.3382                 1.2994                45.1762

                     52                     53                     54
                      A                      A                      A
 Frequencies --   1068.0392              1087.7650              1104.7224
 Red. masses --      2.3603                 4.4641                 1.5834
 Frc consts  --      1.5864                 3.1121                 1.1386
 IR Inten    --    304.2640               309.4970                20.8216

                     55                     56                     57
                      A                      A                      A
 Frequencies --   1110.8580              1121.3333              1186.6870
 Red. masses --      1.6750                 3.4624                 1.0981
 Frc consts  --      1.2178                 2.5651                 0.9111
 IR Inten    --     28.8542               195.6353                 0.1388

                     58                     59                     60
                      A                      A                      A
 Frequencies --   1186.9488              1198.3761              1203.0541
 Red. masses --      1.1027                 1.7219                 1.4205
 Frc consts  --      0.9153                 1.4569                 1.2114
 IR Inten    --      1.6504               127.8747                77.0633

                     61                     62                     63
                      A                      A                      A
 Frequencies --   1204.2521              1236.2287              1247.7981
 Red. masses --      2.0519                 4.5492                 5.2159
 Frc consts  --      1.7533                 4.0962                 4.7849
 IR Inten    --    174.8289                47.5817                 9.3454

                     64                     65                     66
                      A                      A                      A
 Frequencies --   1280.6533              1335.7048              1338.8485
 Red. masses --      2.9155                 2.2604                 1.9482
 Frc consts  --      2.8172                 2.3761                 2.0576
 IR Inten    --    249.3737               100.0930                59.9052

                     67                     68                     69
                      A                      A                      A
 Frequencies --   1359.6650              1366.7326              1378.4897
 Red. masses --      4.9587                 2.6603                 3.3728
 Frc consts  --      5.4011                 2.9279                 3.7762
 IR Inten    --      2.7226                 1.7324               401.1965

                     70                     71                     72
                      A                      A                      A
 Frequencies --   1455.1136              1488.1005              1511.4638
 Red. masses --      4.4982                 2.1486                 2.5128
 Frc consts  --      5.6115                 2.8033                 3.3822
 IR Inten    --    209.4829                18.6238                23.2961

                     73                     74                     75
                      A                      A                      A
 Frequencies --   1524.1566              1546.9432              1582.5724
 Red. masses --      2.0925                 2.7036                 6.4791
 Frc consts  --      2.8640                 3.8118                 9.5607
 IR Inten    --      6.4272               396.5757               389.1810

                     76                     77                     78
                      A                      A                      A
 Frequencies --   1642.7502              1644.3447              1651.7916
 Red. masses --      5.8316                 5.5633                 6.3363
 Frc consts  --      9.2721                 8.8627                10.1858
 IR Inten    --      0.2711                 0.0900                 6.1360

                     79                     80                     81
                      A                      A                      A
 Frequencies --   1658.9069              3205.5332              3210.9758
 Red. masses --      5.6866                 1.0861                 1.0861
 Frc consts  --      9.2204                 6.5751                 6.5976
 IR Inten    --     43.0678                 1.7559                 0.7345

                     82                     83                     84
                      A                      A                      A
 Frequencies --   3213.5852              3218.8394              3223.1035
 Red. masses --      1.0889                 1.0901                 1.0927
 Frc consts  --      6.6257                 6.6543                 6.6881
 IR Inten    --     17.4204                21.9904                33.2174

                     85                     86                     87
                      A                      A                      A
 Frequencies --   3230.0448              3231.2308              3240.1665
 Red. masses --      1.0942                 1.0965                 1.0948
 Frc consts  --      6.7262                 6.7449                 6.7722
 IR Inten    --     46.8194                30.9945                11.4244

                     88                     89                     90
                      A                      A                      A
 Frequencies --   3247.2421              3254.6153              3334.2854
 Red. masses --      1.0919                 1.0929                 1.0982
 Frc consts  --      6.7836                 6.8204                 7.1932
 IR Inten    --      7.6770                 2.8731                 5.8979

 - Thermochemistry -
 -------------------
 Temperature   298.150 Kelvin.  Pressure   1.00000 Atm.
 Atom     1 has atomic number  8 and mass  15.99491

 Molecular mass:   299.06027 amu.
 Principal axes and moments of inertia in atomic units:
                           1         2         3
     Eigenvalues --  2911.75887********************
           X            0.99551   0.08652   0.03849
           Y           -0.05452   0.85603  -0.51405
           Z           -0.07742   0.50964   0.85690
 This molecule is an asymmetric top.
 Rotational symmetry number  1.
 Warning -- assumption of classical behavior for rotation
           may cause significant error
 Rotational temperatures (Kelvin)      0.02975     0.00661     0.00596
 Rotational constants (GHZ):           0.61981     0.13778     0.12411
 Zero-point vibrational energy     617817.3 (Joules/Mol)
                                  147.66188 (Kcal/Mol)
 Warning -- explicit consideration of  24 degrees of freedom as
           vibrations may cause significant error
 Vibrational temperatures:     21.99    32.25    47.86    81.47   115.26
          (Kelvin)            123.79   180.19   215.68   264.92   333.50
                              367.51   402.05   439.92   470.98   536.23
                              565.39   595.64   602.38   636.58   666.90
                              711.26   764.03   789.36   845.89   902.98
                              904.11   963.61   997.23  1001.07  1010.45
                             1014.70  1019.89  1064.84  1081.26  1097.11
                             1118.30  1228.41  1239.09  1338.22  1339.89
                             1347.01  1410.81  1414.75  1436.78  1448.61
                             1453.30  1459.91  1464.82  1504.36  1512.68
                             1519.16  1536.67  1565.05  1589.45  1598.28
                             1613.35  1707.38  1707.75  1724.20  1730.93
                             1732.65  1778.66  1795.30  1842.57  1921.78
                             1926.30  1956.25  1966.42  1983.34  2093.58
                             2141.04  2174.66  2192.92  2225.71  2276.97
                             2363.55  2365.85  2376.56  2386.80  4612.05
                             4619.88  4623.63  4631.19  4637.33  4647.31
                             4649.02  4661.88  4672.06  4682.67  4797.29

 Zero-point correction=                           0.235314 (Hartree/Particle)
 Thermal correction to Energy=                    0.252178
 Thermal correction to Enthalpy=                  0.253122
 Thermal correction to Gibbs Free Energy=         0.187284
 Sum of electronic and zero-point Energies=          -1307.562739
 Sum of electronic and thermal Energies=             -1307.545875
 Sum of electronic and thermal Enthalpies=           -1307.544931
 Sum of electronic and thermal Free Energies=        -1307.610769

                     E (Thermal)             CV                S
                      KCal/Mol        Cal/Mol-Kelvin    Cal/Mol-Kelvin
 Total                  158.244             65.419            138.568
 Electronic               0.000              0.000              0.000
 Translational            0.889              2.981             42.983
 Rotational               0.889              2.981             34.671
 Vibrational            156.467             59.458             60.913
 Vibration     1          0.593              1.986              7.168
 Vibration     2          0.593              1.985              6.408
 Vibration     3          0.594              1.983              5.625
 Vibration     4          0.596              1.975              4.571
 Vibration     5          0.600              1.963              3.888
 Vibration     6          0.601              1.959              3.748
 Vibration     7          0.610              1.928              3.018
 Vibration     8          0.618              1.903              2.673
 Vibration     9          0.631              1.861              2.286
 Vibration    10          0.653              1.792              1.865
 Vibration    11          0.666              1.754              1.693
 Vibration    12          0.680              1.712              1.537
 Vibration    13          0.696              1.663              1.385
 Vibration    14          0.711              1.621              1.273
 Vibration    15          0.744              1.528              1.069
 Vibration    16          0.760              1.485              0.989
 Vibration    17          0.778              1.440              0.913
 Vibration    18          0.782              1.430              0.896
 Vibration    19          0.802              1.378              0.819
 Vibration    20          0.821              1.331              0.756
 Vibration    21          0.850              1.263              0.672
 Vibration    22          0.886              1.181              0.585
 Vibration    23          0.904              1.143              0.547
 Vibration    24          0.945              1.058              0.471

 Optimization completed on the basis of negligible forces.
    -- Stationary point found.
 Normal termination of Gaussian 16 at Thu Sep 24 15:23:29 2020.

 ----------------------------------------------------------------------
 #p b3lyp/6-31G(d) scrf=(iefpcm,read,solvent=water) geom=allcheck guess
 =read
 ----------------------------------------------------------------------

 Structure from the checkpoint file:  "SM45_m1.a.3.pdb.xyz.mst.a.w.chk"
 -------------------
 SM45_m1.a.3.pdb.xyz
 -------------------
 Charge = -1 Multiplicity = 1

 SCF Done:  E(RB3LYP) =  -1307.79804548     A.U. after    7 cycles
 Normal termination of Gaussian 16 at Thu Sep 24 15:24:10 2020.

 -----------------------------
 #p B3LYP/6-31G* geom=allcheck
 -----------------------------

 Structure from the checkpoint file:  "SM45_m1.a.3.pdb.xyz.mst.a.w.chk"
 -------------------
 SM45_m1.a.3.pdb.xyz
 -------------------
 Charge = -1 Multiplicity = 1

 SCF Done:  E(RB3LYP) =  -1307.69407646     A.U. after   15 cycles
 Normal termination of Gaussian 16 at Thu Sep 24 15:24:57 2020.
 Gaussian 16:  ES64L-G16RevB.01 20-Dec-2017

 ----------------------------------------------------------------------
 #p mp2/aug-cc-pVDZ scf=(MaxCycle=2000,NoVarAcc,NoIncFock) maxdisk=120G
 B geom=allcheck
 ----------------------------------------------------------------------

 Structure from the checkpoint file:  "SM45_m1.a.3.pdb.xyz.mst.a.w.chk"
 -------------------
 SM45_m1.a.3.pdb.xyz
 -------------------
 Charge = -1 Multiplicity = 1

                         Standard orientation:
 ---------------------------------------------------------------------
 Center     Atomic      Atomic             Coordinates (Angstroms)
 Number     Number       Type             X           Y           Z
 ---------------------------------------------------------------------
      1          8           0        3.396923   -2.351184    0.559083
      2         16           0        2.448848   -1.480483   -0.185193
      3          7           0        1.027954   -1.658376    0.525462
      4          6           0       -0.073886   -0.964321    0.071910
      5          7           0       -0.127116   -0.041550   -0.948828
      6          7           0       -1.354619    0.418889   -1.063859
      7          6           0       -1.355650   -1.063052    0.601461
      8          7           0       -2.106704   -0.191520   -0.128199
      9          6           0       -3.493378    0.096318   -0.008113
     10          6           0       -4.342306   -0.826034    0.610238
     11          6           0       -5.699151   -0.530463    0.734957
     12          6           0       -6.210584    0.668929    0.236603
     13          6           0       -5.353861    1.579601   -0.387191
     14          6           0       -3.993615    1.303046   -0.507327
     15          6           0        3.028163    0.207171    0.084062
     16          6           0        3.246802    0.651624    1.391287
     17          6           0        3.700134    1.952505    1.605334
     18          6           0        3.933204    2.801500    0.519257
     19          6           0        3.712862    2.349897   -0.782709
     20          6           0        3.257455    1.048113   -1.003630
     21          8           0        2.452021   -1.674109   -1.662474
     22          1           0       -1.753586   -1.638176    1.418896
     23          1           0       -3.950361   -1.766614    0.978116
     24          1           0       -6.356207   -1.246698    1.216072
     25          1           0       -7.267187    0.892682    0.333397
     26          1           0       -5.741698    2.515612   -0.774455
     27          1           0       -3.317507    2.005568   -0.976639
     28          1           0        3.066221   -0.011939    2.229668
     29          1           0        3.873156    2.303296    2.617203
     30          1           0        4.286056    3.813006    0.689953
     31          1           0        3.894187    3.007735   -1.626293
     32          1           0        3.080070    0.674480   -2.004570
 ---------------------------------------------------------------------

 SCF Done:  E(RHF) =  -1301.61143080     A.U. after   17 cycles
 E2 =    -0.3151046216D+01 EUMP2 =    -0.13047624770192D+04

 The electronic state is 1-A.
 Alpha  occ. eigenvalues --  -92.04605 -20.37753 -20.37455 -15.55639 -15.52817
 Alpha  occ. eigenvalues --  -15.47366 -15.38590 -11.21947 -11.17958 -11.17797
 Alpha  occ. eigenvalues --  -11.17273 -11.17233 -11.17213 -11.16814 -11.14675
 Alpha  occ. eigenvalues --  -11.14587 -11.14352 -11.14194 -11.14047 -11.14019
 Alpha  occ. eigenvalues --  -11.13582  -9.01280  -6.69833  -6.69759  -6.69730
 Alpha  occ. eigenvalues --   -1.31940  -1.26940  -1.14530  -1.12837  -1.07005
 Alpha  occ. eigenvalues --   -1.05214  -1.04287  -0.95605  -0.94508  -0.92843
 Alpha  occ. eigenvalues --   -0.91480  -0.91320  -0.78993  -0.77469  -0.75530
 Alpha  occ. eigenvalues --   -0.72527  -0.70598  -0.69981  -0.66465  -0.63434
 Alpha  occ. eigenvalues --   -0.60644  -0.58551  -0.56287  -0.55630  -0.54261
 Alpha  occ. eigenvalues --   -0.52762  -0.52583  -0.52005  -0.51332  -0.50638
 Alpha  occ. eigenvalues --   -0.49259  -0.48565  -0.46035  -0.44563  -0.43676
 Alpha  occ. eigenvalues --   -0.43327  -0.41640  -0.40508  -0.39740  -0.39178
 Alpha  occ. eigenvalues --   -0.35497  -0.33493  -0.33359  -0.31445  -0.30560
 Alpha  occ. eigenvalues --   -0.29472  -0.28242  -0.27178  -0.25227  -0.24049
 Alpha  occ. eigenvalues --   -0.23245  -0.22782  -0.15459
 Alpha virt. eigenvalues --    0.08682   0.09668   0.10335   0.10774   0.11438
 Alpha virt. eigenvalues --    0.12474   0.12755   0.13613   0.14243   0.15527
 Alpha virt. eigenvalues --    0.15755   0.17069   0.17365   0.17665   0.18701

 Mulliken charges:
               1
     1  O   -1.248498
     2  S    3.113706
     3  N   -1.262078
     4  C   -0.130378
     5  N   -0.631827
     6  N   -0.226103
     7  C    1.436478
     8  N   -0.575596
     9  C    0.842960
    10  C    0.084291
    11  C    0.700279
    12  C    0.627812
    13  C    0.596207
    14  C    0.489265
    15  C    0.534282
    16  C    0.006186
    17  C    0.337114
    18  C    0.588553
    19  C    0.453386
    20  C    0.370671
    21  O   -1.339877
    22  H   -0.562286
    23  H   -0.659322
    24  H   -0.455434
    25  H   -0.463152
    26  H   -0.449771
    27  H   -0.532609
    28  H   -0.631041
    29  H   -0.478191
    30  H   -0.467991
    31  H   -0.479704
    32  H   -0.587333
 Sum of Mulliken charges =  -1.00000

 Dipole moment (field-independent basis, Debye):
    X=             -9.6150    Y=              7.5034    Z=              2.9702  Tot=             12.5528
 Quadrupole moment (field-independent basis, Debye-Ang):
   XX=           -165.2516   YY=           -149.9330   ZZ=           -141.0899
   XY=             25.8438   XZ=             -1.1958   YZ=             -4.5030

 Normal termination of Gaussian 16 at Thu Sep 24 16:08:52 2020.
