 Gaussian 16, Revision B.01,

 ----------------------------------------------------------------------
 #p b3lyp/6-31G(d) opt freq NoSymm scf=(MaxCycle=2000,NoVarAcc,NoIncFoc
 k) scrf=(iefpcm,read,solvent=water)
 ----------------------------------------------------------------------

 -------------------
 SM45_m2.b.9.pdb.xyz
 -------------------
 Symbolic Z-matrix:
 Charge =  1 Multiplicity = 1

 SCF Done:  E(RB3LYP) =  -1308.70779078     A.U. after   13 cycles
 SCF Done:  E(RB3LYP) =  -1308.71328653     A.U. after   11 cycles
 SCF Done:  E(RB3LYP) =  -1308.71509479     A.U. after   10 cycles
 SCF Done:  E(RB3LYP) =  -1308.71517428     A.U. after    9 cycles
 SCF Done:  E(RB3LYP) =  -1308.71524318     A.U. after   10 cycles
 SCF Done:  E(RB3LYP) =  -1308.71533477     A.U. after   10 cycles
 SCF Done:  E(RB3LYP) =  -1308.71533716     A.U. after   11 cycles
 SCF Done:  E(RB3LYP) =  -1308.71531195     A.U. after   11 cycles
 SCF Done:  E(RB3LYP) =  -1308.71515449     A.U. after   14 cycles
 SCF Done:  E(RB3LYP) =  -1308.71569143     A.U. after   10 cycles
 SCF Done:  E(RB3LYP) =  -1308.71846736     A.U. after    9 cycles
 SCF Done:  E(RB3LYP) =  -1308.71847078     A.U. after    8 cycles
 SCF Done:  E(RB3LYP) =  -1308.71846937     A.U. after    8 cycles
 SCF Done:  E(RB3LYP) =  -1308.71848975     A.U. after    9 cycles
 SCF Done:  E(RB3LYP) =  -1308.71846967     A.U. after    9 cycles
 SCF Done:  E(RB3LYP) =  -1308.71846939     A.U. after    6 cycles
 Optimization completed on the basis of negligible forces.
    -- Stationary point found.
 Normal termination of Gaussian 16 at Thu Sep 24 15:56:26 2020.

 --------------------------------------------------------------------
 #P Geom=AllCheck Guess=TCheck SCRF=Check GenChk RB3LYP/6-31G(d) Freq
 --------------------------------------------------------------------

 Structure from the checkpoint file:  "SM45_m2.b.9.pdb.xyz.mst.b.w.chk"
 -------------------
 SM45_m2.b.9.pdb.xyz
 -------------------
 Charge =  1 Multiplicity = 1

 SCF Done:  E(RB3LYP) =  -1308.71846939     A.U. after    1 cycles

  Exact polarizability: 335.353 -29.177 238.226 -26.967  24.744 196.370
 Approx polarizability: 366.699 -42.489 280.602 -28.501  36.786 248.238

                      1                      2                      3
                      A                      A                      A
 Frequencies --     12.7470                25.9986                36.4793
 Red. masses --      5.6536                 4.4547                 3.9881
 Frc consts  --      0.0005                 0.0018                 0.0031
 IR Inten    --      0.2736                 0.2388                 0.0156

                      4                      5                      6
                      A                      A                      A
 Frequencies --     49.5747                67.9425                84.1059
 Red. masses --      5.3685                 7.3190                 4.6589
 Frc consts  --      0.0078                 0.0199                 0.0194
 IR Inten    --      1.6650                 5.5439                 0.1621

                      7                      8                      9
                      A                      A                      A
 Frequencies --    117.9068               148.3958               169.0006
 Red. masses --      5.3606                 6.6480                 6.0063
 Frc consts  --      0.0439                 0.0863                 0.1011
 IR Inten    --     10.8078                 7.9805                 1.0932

                     10                     11                     12
                      A                      A                      A
 Frequencies --    225.7232               256.5007               286.0284
 Red. masses --      5.6103                 7.2850                 5.4529
 Frc consts  --      0.1684                 0.2824                 0.2628
 IR Inten    --      0.1979                 2.4090                 5.3031

                     13                     14                     15
                      A                      A                      A
 Frequencies --    301.5867               304.3133               363.2889
 Red. masses --      7.3123                 8.3728                 7.0801
 Frc consts  --      0.3919                 0.4568                 0.5505
 IR Inten    --      2.4259                 5.9458                 2.6839

                     16                     17                     18
                      A                      A                      A
 Frequencies --    381.1631               412.9498               417.6547
 Red. masses --      5.6245                 2.9690                 3.0837
 Frc consts  --      0.4815                 0.2983                 0.3169
 IR Inten    --      5.6362                 0.0144                 0.1650

                     19                     20                     21
                      A                      A                      A
 Frequencies --    420.1952               453.0699               466.4627
 Red. masses --      6.6465                 3.6618                 4.8627
 Frc consts  --      0.6914                 0.4429                 0.6234
 IR Inten    --      5.7169                23.0709                 2.7589

                     22                     23                     24
                      A                      A                      A
 Frequencies --    501.0510               533.0651               537.0333
 Red. masses --      1.6316                 5.6307                 4.8309
 Frc consts  --      0.2413                 0.9427                 0.8209
 IR Inten    --    161.6817                59.4438               117.9065

                     25                     26                     27
                      A                      A                      A
 Frequencies --    576.7222               624.3502               626.0524
 Red. masses --      9.6765                 6.4568                 6.0784
 Frc consts  --      1.8963                 1.4829                 1.4036
 IR Inten    --    352.1162                 0.0939                 1.4197

                     28                     29                     30
                      A                      A                      A
 Frequencies --    641.7736               666.7606               694.2634
 Red. masses --      1.2688                 4.2288                 2.6399
 Frc consts  --      0.3079                 1.1076                 0.7497
 IR Inten    --    147.0561                26.3529                32.4335

                     31                     32                     33
                      A                      A                      A
 Frequencies --    695.7825               698.8644               703.3566
 Red. masses --      4.7379                 2.6616                 3.6184
 Frc consts  --      1.3514                 0.7659                 1.0547
 IR Inten    --     43.8952                52.7103                 0.5662

                     34                     35                     36
                      A                      A                      A
 Frequencies --    722.8490               765.2181               779.8202
 Red. masses --      6.6954                 1.4191                 1.6237
 Frc consts  --      2.0612                 0.4896                 0.5818
 IR Inten    --     76.2401                43.0312                84.4765

                     37                     38                     39
                      A                      A                      A
 Frequencies --    787.0874               803.6050               845.7303
 Red. masses --      2.6711                 1.8232                 4.2502
 Frc consts  --      0.9749                 0.6937                 1.7911
 IR Inten    --     53.9686                22.0566               227.1485

                     40                     41                     42
                      A                      A                      A
 Frequencies --    851.2714               859.5868               943.4689
 Red. masses --      1.3025                 1.2463                 1.3713
 Frc consts  --      0.5561                 0.5426                 0.7192
 IR Inten    --      7.2959                 0.3220                 5.6063

                     43                     44                     45
                      A                      A                      A
 Frequencies --    951.4735               986.1090               990.2774
 Red. masses --      1.3077                 1.3479                 1.3572
 Frc consts  --      0.6975                 0.7722                 0.7842
 IR Inten    --      0.4683                 0.4104                 0.0486

                     46                     47                     48
                      A                      A                      A
 Frequencies --   1008.9412              1013.0366              1018.5034
 Red. masses --      8.0228                 6.4467                 1.2865
 Frc consts  --      4.8118                 3.8980                 0.7863
 IR Inten    --     23.4872                 5.8632                 0.1388

                     49                     50                     51
                      A                      A                      A
 Frequencies --   1023.0506              1023.2764              1045.3940
 Red. masses --      6.0025                 1.3190                 3.0423
 Frc consts  --      3.7015                 0.8137                 1.9589
 IR Inten    --      1.1440                 0.3630                 9.3190

                     52                     53                     54
                      A                      A                      A
 Frequencies --   1052.1898              1067.9063              1079.7648
 Red. masses --      2.1710                 2.1086                 3.0869
 Frc consts  --      1.4161                 1.4168                 2.1205
 IR Inten    --      5.7718                92.9113                64.5439

                     55                     56                     57
                      A                      A                      A
 Frequencies --   1107.0532              1108.6490              1110.4947
 Red. masses --      1.5341                 3.3082                 1.5215
 Frc consts  --      1.1077                 2.3957                 1.1055
 IR Inten    --     13.6656                 4.1860                22.2896

                     58                     59                     60
                      A                      A                      A
 Frequencies --   1134.1951              1193.3607              1195.6252
 Red. masses --      6.6120                 1.1202                 1.1010
 Frc consts  --      5.0114                 0.9399                 0.9273
 IR Inten    --    370.9731                 3.3369                 0.4326

                     61                     62                     63
                      A                      A                      A
 Frequencies --   1198.9031              1203.5897              1205.0636
 Red. masses --      1.1518                 1.2391                 1.7816
 Frc consts  --      0.9755                 1.0576                 1.5244
 IR Inten    --      3.7341                19.3798                50.5559

                     64                     65                     66
                      A                      A                      A
 Frequencies --   1237.2404              1302.3310              1336.0955
 Red. masses --      2.6010                 4.0742                 5.1425
 Frc consts  --      2.3459                 4.0713                 5.4088
 IR Inten    --      5.3064               117.3853               196.0016

                     67                     68                     69
                      A                      A                      A
 Frequencies --   1340.9494              1344.5555              1364.1509
 Red. masses --      1.4879                 1.7572                 6.2279
 Frc consts  --      1.5764                 1.8716                 6.8284
 IR Inten    --     17.6243                14.8441                 1.0550

                     70                     71                     72
                      A                      A                      A
 Frequencies --   1367.8349              1396.8077              1419.3733
 Red. masses --      4.2468                 2.6286                 2.2070
 Frc consts  --      4.6814                 3.0216                 2.6197
 IR Inten    --      3.7081                 1.9655               119.7688

                     73                     74                     75
                      A                      A                      A
 Frequencies --   1455.7113              1493.3779              1505.9592
 Red. masses --      4.1208                 2.1808                 2.2610
 Frc consts  --      5.1450                 2.8656                 3.0212
 IR Inten    --     10.6990                23.4069                17.6888

                     76                     77                     78
                      A                      A                      A
 Frequencies --   1519.0017              1530.8519              1541.3116
 Red. masses --      2.0533                 2.7957                 2.4642
 Frc consts  --      2.7914                 3.8602                 3.4491
 IR Inten    --      2.9457               156.3124                25.6053

                     79                     80                     81
                      A                      A                      A
 Frequencies --   1639.2670              1642.0658              1648.8917
 Red. masses --      5.4334                 5.8684                 5.9817
 Frc consts  --      8.6024                 9.3229                 9.5821
 IR Inten    --      7.5206                 3.7216               382.9541

                     82                     83                     84
                      A                      A                      A
 Frequencies --   1654.0300              1663.5887              3219.7204
 Red. masses --      5.7609                 6.1944                 1.0873
 Frc consts  --      9.2860                10.1005                 6.6409
 IR Inten    --     47.2524               198.7664                 2.5894

                     85                     86                     87
                      A                      A                      A
 Frequencies --   3221.2115              3230.7047              3232.5166
 Red. masses --      1.0870                 1.0898                 1.0898
 Frc consts  --      6.6452                 6.7017                 6.7094
 IR Inten    --      1.0668                11.4468                15.3833

                     88                     89                     90
                      A                      A                      A
 Frequencies --   3237.1422              3238.8134              3246.3866
 Red. masses --      1.0931                 1.0937                 1.0966
 Frc consts  --      6.7491                 6.7598                 6.8093
 IR Inten    --     26.7790                19.0006                12.4345

                     91                     92                     93
                      A                      A                      A
 Frequencies --   3250.4922              3254.6957              3255.0810
 Red. masses --      1.0942                 1.0943                 1.0941
 Frc consts  --      6.8115                 6.8299                 6.8301
 IR Inten    --      7.1788                 1.4672                 4.6140

                     94                     95                     96
                      A                      A                      A
 Frequencies --   3374.9097              3502.3695              3525.9817
 Red. masses --      1.1008                 1.0776                 1.0870
 Frc consts  --      7.3874                 7.7883                 7.9622
 IR Inten    --     36.8860               208.2469               612.1050

 - Thermochemistry -
 -------------------
 Temperature   298.150 Kelvin.  Pressure   1.00000 Atm.
 Atom     1 has atomic number  8 and mass  15.99491

 Molecular mass:   301.07592 amu.
 Principal axes and moments of inertia in atomic units:
                           1         2         3
     Eigenvalues --  3178.64447********************
           X            0.99759  -0.06839  -0.01152
           Y            0.06931   0.97660   0.20358
           Z           -0.00267  -0.20388   0.97899
 This molecule is an asymmetric top.
 Rotational symmetry number  1.
 Warning -- assumption of classical behavior for rotation
           may cause significant error
 Rotational temperatures (Kelvin)      0.02725     0.00702     0.00649
 Rotational constants (GHZ):           0.56777     0.14625     0.13532
 Zero-point vibrational energy     686471.5 (Joules/Mol)
                                  164.07063 (Kcal/Mol)
 Warning -- explicit consideration of  25 degrees of freedom as
           vibrations may cause significant error
 Vibrational temperatures:     18.34    37.41    52.49    71.33    97.75
          (Kelvin)            121.01   169.64   213.51   243.15   324.77
                              369.05   411.53   433.92   437.84   522.69
                              548.41   594.14   600.91   604.57   651.87
                              671.14   720.90   766.96   772.67   829.77
                              898.30   900.75   923.37   959.32   998.89
                             1001.08  1005.51  1011.97  1040.02  1100.98
                             1121.99  1132.44  1156.21  1216.82  1224.79
                             1236.75  1357.44  1368.96  1418.79  1424.79
                             1451.64  1457.53  1465.40  1471.94  1472.27
                             1504.09  1513.87  1536.48  1553.54  1592.80
                             1595.10  1597.75  1631.85  1716.98  1720.24
                             1724.95  1731.70  1733.82  1780.11  1873.76
                             1922.34  1929.33  1934.52  1962.71  1968.01
                             2009.69  2042.16  2094.44  2148.64  2166.74
                             2185.50  2202.55  2217.60  2358.54  2362.57
                             2372.39  2379.78  2393.53  4632.46  4634.60
                             4648.26  4650.87  4657.53  4659.93  4670.83
                             4676.73  4682.78  4683.34  4855.74  5039.13
                             5073.10

 Zero-point correction=                           0.261463 (Hartree/Particle)
 Thermal correction to Energy=                    0.278853
 Thermal correction to Enthalpy=                  0.279798
 Thermal correction to Gibbs Free Energy=         0.212922
 Sum of electronic and zero-point Energies=          -1308.457006
 Sum of electronic and thermal Energies=             -1308.439616
 Sum of electronic and thermal Enthalpies=           -1308.438672
 Sum of electronic and thermal Free Energies=        -1308.505547

                     E (Thermal)             CV                S
                      KCal/Mol        Cal/Mol-Kelvin    Cal/Mol-Kelvin
 Total                  174.983             67.802            140.751
 Electronic               0.000              0.000              0.000
 Translational            0.889              2.981             43.003
 Rotational               0.889              2.981             34.613
 Vibrational            173.206             61.840             63.135
 Vibration     1          0.593              1.987              7.529
 Vibration     2          0.593              1.985              6.113
 Vibration     3          0.594              1.982              5.442
 Vibration     4          0.595              1.978              4.834
 Vibration     5          0.598              1.969              4.212
 Vibration     6          0.601              1.960              3.793
 Vibration     7          0.608              1.934              3.134
 Vibration     8          0.618              1.904              2.693
 Vibration     9          0.625              1.881              2.447
 Vibration    10          0.650              1.802              1.913
 Vibration    11          0.666              1.752              1.685
 Vibration    12          0.684              1.700              1.497
 Vibration    13          0.694              1.671              1.408
 Vibration    14          0.695              1.666              1.393
 Vibration    15          0.737              1.548              1.108
 Vibration    16          0.751              1.510              1.035
 Vibration    17          0.777              1.442              0.916
 Vibration    18          0.781              1.432              0.900
 Vibration    19          0.783              1.426              0.891
 Vibration    20          0.812              1.354              0.787
 Vibration    21          0.824              1.324              0.748
 Vibration    22          0.856              1.248              0.656
 Vibration    23          0.888              1.177              0.580
 Vibration    24          0.892              1.168              0.572
 Vibration    25          0.933              1.082              0.491

 Optimization completed on the basis of negligible forces.
    -- Stationary point found.
 Normal termination of Gaussian 16 at Thu Sep 24 16:08:01 2020.

 ----------------------------------------------------------------------
 #p b3lyp/6-31G(d) scrf=(iefpcm,read,solvent=water) geom=allcheck guess
 =read
 ----------------------------------------------------------------------

 Structure from the checkpoint file:  "SM45_m2.b.9.pdb.xyz.mst.b.w.chk"
 -------------------
 SM45_m2.b.9.pdb.xyz
 -------------------
 Charge =  1 Multiplicity = 1

 SCF Done:  E(RB3LYP) =  -1308.71836235     A.U. after    8 cycles
 Normal termination of Gaussian 16 at Thu Sep 24 16:08:48 2020.

 -----------------------------
 #p B3LYP/6-31G* geom=allcheck
 -----------------------------

 Structure from the checkpoint file:  "SM45_m2.b.9.pdb.xyz.mst.b.w.chk"
 -------------------
 SM45_m2.b.9.pdb.xyz
 -------------------
 Charge =  1 Multiplicity = 1

 SCF Done:  E(RB3LYP) =  -1308.61600572     A.U. after   16 cycles
 Normal termination of Gaussian 16 at Thu Sep 24 16:09:42 2020.
 Gaussian 16:  ES64L-G16RevB.01 20-Dec-2017

 ----------------------------------------------------------------------
 #p mp2/aug-cc-pVDZ scf=(MaxCycle=2000,NoVarAcc,NoIncFock) maxdisk=120G
 B geom=allcheck
 ----------------------------------------------------------------------

 Structure from the checkpoint file:  "SM45_m2.b.9.pdb.xyz.mst.b.w.chk"
 -------------------
 SM45_m2.b.9.pdb.xyz
 -------------------
 Charge =  1 Multiplicity = 1

                         Standard orientation:
 ---------------------------------------------------------------------
 Center     Atomic      Atomic             Coordinates (Angstroms)
 Number     Number       Type             X           Y           Z
 ---------------------------------------------------------------------
      1          8           0       -1.383874   -0.802725   -2.012735
      2         16           0       -2.269777   -1.134207   -0.894492
      3          7           0       -1.242232   -1.826309    0.283101
      4          6           0        0.015242   -1.327066    0.527666
      5          7           0        0.602178   -1.364225    1.751513
      6          7           0        1.832181   -0.883534    1.756910
      7          6           0        0.970133   -0.766809   -0.302105
      8          7           0        2.036572   -0.517176    0.507457
      9          6           0        3.297608    0.054869    0.133058
     10          6           0        4.445662   -0.335893    0.821618
     11          6           0        5.665731    0.227233    0.455184
     12          6           0        5.729891    1.154237   -0.587999
     13          6           0        4.568352    1.527748   -1.266649
     14          6           0        3.337383    0.982380   -0.906657
     15          6           0       -2.918626    0.371826   -0.206240
     16          6           0       -4.069998    0.314700    0.582937
     17          6           0       -4.560002    1.498428    1.129834
     18          6           0       -3.903250    2.708530    0.887309
     19          6           0       -2.754987    2.745628    0.092313
     20          6           0       -2.250630    1.571193   -0.464034
     21          8           0       -3.349889   -2.108994   -1.032735
     22          1           0       -1.741278   -2.209304    1.088952
     23          1           0        0.955221   -0.569069   -1.357402
     24          1           0        4.378661   -1.067493    1.616349
     25          1           0        6.566913   -0.067982    0.980278
     26          1           0        6.683749    1.584645   -0.871317
     27          1           0        4.613762    2.251755   -2.071751
     28          1           0        2.428796    1.287329   -1.411424
     29          1           0       -4.572777   -0.629405    0.751634
     30          1           0       -5.455336    1.475781    1.740254
     31          1           0       -4.291553    3.626293    1.315018
     32          1           0       -2.254260    3.687344   -0.100797
     33          1           0       -1.371918    1.579805   -1.096077
     34          1           0        0.210619   -1.731954    2.621636
 ---------------------------------------------------------------------

 SCF Done:  E(RHF) =  -1302.52936715     A.U. after   17 cycles
 E2 =    -0.3127656469D+01 EUMP2 =    -0.13056570236221D+04

 The electronic state is 1-A.
 Alpha  occ. eigenvalues --  -92.36539 -20.69401 -20.68797 -15.89057 -15.87339
 Alpha  occ. eigenvalues --  -15.86137 -15.78553 -11.53298 -11.46496 -11.44002
 Alpha  occ. eigenvalues --  -11.40547 -11.39116 -11.38697 -11.38680 -11.38477
 Alpha  occ. eigenvalues --  -11.37547 -11.37524 -11.37438 -11.37328 -11.36941
 Alpha  occ. eigenvalues --  -11.36822  -9.33250  -7.01782  -7.01763  -7.01608
 Alpha  occ. eigenvalues --   -1.67582  -1.59514  -1.47380  -1.47033  -1.41403
 Alpha  occ. eigenvalues --   -1.29759  -1.29565  -1.28235  -1.19149  -1.17355
 Alpha  occ. eigenvalues --   -1.16061  -1.15364  -1.08962  -1.07751  -1.03181
 Alpha  occ. eigenvalues --   -0.98561  -0.97077  -0.96466  -0.95378  -0.93636
 Alpha  occ. eigenvalues --   -0.87858  -0.87506  -0.87160  -0.86769  -0.83203
 Alpha  occ. eigenvalues --   -0.81174  -0.80344  -0.79510  -0.77656  -0.76619
 Alpha  occ. eigenvalues --   -0.74837  -0.74600  -0.74460  -0.73190  -0.72400
 Alpha  occ. eigenvalues --   -0.71404  -0.70341  -0.66905  -0.65432  -0.65012
 Alpha  occ. eigenvalues --   -0.64147  -0.63597  -0.63214  -0.62940  -0.62554
 Alpha  occ. eigenvalues --   -0.61817  -0.60202  -0.59043  -0.51879  -0.47709
 Alpha  occ. eigenvalues --   -0.47349  -0.47040  -0.46723
 Alpha virt. eigenvalues --   -0.08953  -0.08037  -0.05474  -0.04826  -0.04350
 Alpha virt. eigenvalues --   -0.04020  -0.03516  -0.03412  -0.02811  -0.02306
 Alpha virt. eigenvalues --   -0.02227  -0.01797  -0.01290  -0.01223  -0.00683

 Mulliken charges:
               1
     1  O   -1.199716
     2  S    2.956277
     3  N   -0.837620
     4  C    0.720756
     5  N   -0.430407
     6  N   -0.311754
     7  C    1.274879
     8  N   -0.622100
     9  C    1.057101
    10  C    0.461787
    11  C    0.549996
    12  C    0.567135
    13  C    0.587016
    14  C    0.321749
    15  C    0.774187
    16  C   -0.107770
    17  C    0.625502
    18  C    0.484584
    19  C    0.411530
    20  C    0.280819
    21  O   -1.098336
    22  H   -0.103233
    23  H   -0.535211
    24  H   -0.524193
    25  H   -0.410864
    26  H   -0.418231
    27  H   -0.422458
    28  H   -0.632337
    29  H   -0.546618
    30  H   -0.429491
    31  H   -0.416878
    32  H   -0.461708
    33  H   -0.565966
    34  H    0.001573
 Sum of Mulliken charges =   1.00000

 Dipole moment (field-independent basis, Debye):
    X=              4.3819    Y=              1.5719    Z=              6.4256  Tot=              7.9348
 Quadrupole moment (field-independent basis, Debye-Ang):
   XX=            -65.5163   YY=           -111.0518   ZZ=           -118.4208
   XY=             -8.3113   XZ=            -17.8115   YZ=            -17.4514

 Normal termination of Gaussian 16 at Thu Sep 24 17:35:07 2020.
