 Gaussian 16, Revision B.01,

 ----------------------------------------------------------------------
 #p b3lyp/6-31G(d) opt freq NoSymm scf=(MaxCycle=2000,NoVarAcc,NoIncFoc
 k) scrf=(iefpcm,read,solvent=water)
 ----------------------------------------------------------------------

 -------------------
 SM45_m2.b.8.pdb.xyz
 -------------------
 Symbolic Z-matrix:
 Charge =  1 Multiplicity = 1

 SCF Done:  E(RB3LYP) =  -1308.69475644     A.U. after   13 cycles
 SCF Done:  E(RB3LYP) =  -1308.70824161     A.U. after   13 cycles
 SCF Done:  E(RB3LYP) =  -1308.71284578     A.U. after   10 cycles
 SCF Done:  E(RB3LYP) =  -1308.71420432     A.U. after   11 cycles
 SCF Done:  E(RB3LYP) =  -1308.71478665     A.U. after   11 cycles
 SCF Done:  E(RB3LYP) =  -1308.71532186     A.U. after   10 cycles
 SCF Done:  E(RB3LYP) =  -1308.71538914     A.U. after    9 cycles
 SCF Done:  E(RB3LYP) =  -1308.71547349     A.U. after   10 cycles
 SCF Done:  E(RB3LYP) =  -1308.71491836     A.U. after   13 cycles
 SCF Done:  E(RB3LYP) =  -1308.71567445     A.U. after   10 cycles
 SCF Done:  E(RB3LYP) =  -1308.71610453     A.U. after    7 cycles
 SCF Done:  E(RB3LYP) =  -1308.71610497     A.U. after    8 cycles
 SCF Done:  E(RB3LYP) =  -1308.71610314     A.U. after    8 cycles
 SCF Done:  E(RB3LYP) =  -1308.71610212     A.U. after    7 cycles
 SCF Done:  E(RB3LYP) =  -1308.71610128     A.U. after    6 cycles
 SCF Done:  E(RB3LYP) =  -1308.71610123     A.U. after    7 cycles
 Optimization completed.
    -- Stationary point found.
 Normal termination of Gaussian 16 at Thu Sep 24 15:18:47 2020.

 --------------------------------------------------------------------
 #P Geom=AllCheck Guess=TCheck SCRF=Check GenChk RB3LYP/6-31G(d) Freq
 --------------------------------------------------------------------

 Structure from the checkpoint file:  "SM45_m2.b.8.pdb.xyz.mst.b.w.chk"
 -------------------
 SM45_m2.b.8.pdb.xyz
 -------------------
 Charge =  1 Multiplicity = 1

 SCF Done:  E(RB3LYP) =  -1308.71610123     A.U. after    1 cycles

  Exact polarizability: 375.036  12.706 227.395 -33.255  42.827 170.787
 Approx polarizability: 386.069   6.269 292.424 -40.764  59.094 211.533

                      1                      2                      3
                      A                      A                      A
 Frequencies --     17.9073                18.9597                26.5225
 Red. masses --      5.9498                 4.7044                 4.4918
 Frc consts  --      0.0011                 0.0010                 0.0019
 IR Inten    --      0.3784                 0.0695                 0.1764

                      4                      5                      6
                      A                      A                      A
 Frequencies --     43.0436                71.3231               102.1987
 Red. masses --      4.9170                 6.7411                 4.5296
 Frc consts  --      0.0054                 0.0202                 0.0279
 IR Inten    --      2.9584                 3.7957                 6.3031

                      7                      8                      9
                      A                      A                      A
 Frequencies --    112.9584               132.3387               179.7604
 Red. masses --      5.3576                 7.9959                 6.3432
 Frc consts  --      0.0403                 0.0825                 0.1208
 IR Inten    --      5.5882                 6.4163                 1.1222

                     10                     11                     12
                      A                      A                      A
 Frequencies --    216.4364               254.0491               282.8839
 Red. masses --      5.1969                 6.0089                 5.8593
 Frc consts  --      0.1434                 0.2285                 0.2763
 IR Inten    --      3.5267                 2.4768                 4.9979

                     13                     14                     15
                      A                      A                      A
 Frequencies --    288.0526               311.8695               370.7975
 Red. masses --      5.5243                 8.4364                 6.8875
 Frc consts  --      0.2701                 0.4834                 0.5579
 IR Inten    --     12.5723                 5.4962                 9.0818

                     16                     17                     18
                      A                      A                      A
 Frequencies --    387.3758               407.5363               412.8314
 Red. masses --      4.2017                 5.3626                 3.1006
 Frc consts  --      0.3715                 0.5248                 0.3113
 IR Inten    --      6.2267                30.0183                 3.9211

                     19                     20                     21
                      A                      A                      A
 Frequencies --    418.3542               452.7982               477.6348
 Red. masses --      2.9913                 5.7077                 4.5940
 Frc consts  --      0.3085                 0.6895                 0.6175
 IR Inten    --      0.4580                 3.8489                 6.1285

                     22                     23                     24
                      A                      A                      A
 Frequencies --    497.7469               537.7021               557.5285
 Red. masses --      3.5334                 3.4876                 6.2866
 Frc consts  --      0.5158                 0.5941                 1.1513
 IR Inten    --     13.4341                55.2028               233.1949

                     25                     26                     27
                      A                      A                      A
 Frequencies --    578.5439               624.5251               626.0449
 Red. masses --      7.8880                 6.4506                 6.4346
 Frc consts  --      1.5556                 1.4824                 1.4859
 IR Inten    --    298.3208                 0.0780                 1.3364

                     28                     29                     30
                      A                      A                      A
 Frequencies --    669.9133               682.1569               693.6391
 Red. masses --      2.0578                 2.9957                 2.5506
 Frc consts  --      0.5441                 0.8213                 0.7230
 IR Inten    --     25.9942                55.1828                42.0151

                     31                     32                     33
                      A                      A                      A
 Frequencies --    698.6447               701.5128               708.4456
 Red. masses --      2.6795                 3.3201                 2.3553
 Frc consts  --      0.7706                 0.9626                 0.6965
 IR Inten    --     60.9085                49.7518                53.1612

                     34                     35                     36
                      A                      A                      A
 Frequencies --    728.0512               763.8492               780.1017
 Red. masses --      6.7082                 1.4446                 1.6231
 Frc consts  --      2.0950                 0.4966                 0.5820
 IR Inten    --    118.8814                28.9328                68.0518

                     37                     38                     39
                      A                      A                      A
 Frequencies --    797.0273               829.8412               831.5179
 Red. masses --      2.0042                 1.9544                 4.2530
 Frc consts  --      0.7501                 0.7930                 1.7325
 IR Inten    --     66.9457                21.6248               326.2741

                     40                     41                     42
                      A                      A                      A
 Frequencies --    852.9762               857.6850               944.9570
 Red. masses --      1.2560                 1.2463                 1.3699
 Frc consts  --      0.5384                 0.5402                 0.7207
 IR Inten    --      0.3018                 0.2230                 6.7476

                     43                     44                     45
                      A                      A                      A
 Frequencies --    949.6954               986.7028               990.5100
 Red. masses --      1.3054                 1.3492                 1.3558
 Frc consts  --      0.6937                 0.7739                 0.7837
 IR Inten    --      1.2131                 0.4385                 0.1229

                     46                     47                     48
                      A                      A                      A
 Frequencies --   1007.6138              1013.3352              1017.5515
 Red. masses --      8.0767                 6.4998                 1.2869
 Frc consts  --      4.8314                 3.9324                 0.7851
 IR Inten    --     18.1816                 7.2119                 0.2267

                     49                     50                     51
                      A                      A                      A
 Frequencies --   1022.6198              1022.9143              1047.8454
 Red. masses --      6.3428                 1.2978                 3.0756
 Frc consts  --      3.9080                 0.8001                 1.9896
 IR Inten    --      0.8624                 0.3191                 9.2467

                     52                     53                     54
                      A                      A                      A
 Frequencies --   1054.3304              1075.8212              1082.7211
 Red. masses --      2.1846                 2.9174                 3.1758
 Frc consts  --      1.4308                 1.9894                 2.1935
 IR Inten    --      4.8444               116.0673                48.0811

                     55                     56                     57
                      A                      A                      A
 Frequencies --   1110.9930              1112.2655              1113.9101
 Red. masses --      1.5382                 2.6742                 1.5442
 Frc consts  --      1.1186                 1.9492                 1.1289
 IR Inten    --     10.2550                15.2000                20.6316

                     58                     59                     60
                      A                      A                      A
 Frequencies --   1136.3750              1192.8588              1195.5721
 Red. masses --      6.2817                 1.0942                 1.0952
 Frc consts  --      4.7794                 0.9173                 0.9224
 IR Inten    --    289.6690                 0.2137                 0.1944

                     61                     62                     63
                      A                      A                      A
 Frequencies --   1203.8116              1206.8055              1224.7863
 Red. masses --      1.1398                 1.1689                 1.9924
 Frc consts  --      0.9732                 1.0030                 1.7610
 IR Inten    --      4.0133                 1.2612                71.8310

                     64                     65                     66
                      A                      A                      A
 Frequencies --   1249.3761              1295.5133              1343.8261
 Red. masses --      3.0455                 8.9068                 1.4633
 Frc consts  --      2.8009                 8.8076                 1.5569
 IR Inten    --     17.8051               212.2541                 1.0278

                     67                     68                     69
                      A                      A                      A
 Frequencies --   1347.2149              1352.2079              1366.2012
 Red. masses --      2.4871                 2.8604                 6.1805
 Frc consts  --      2.6596                 3.0815                 6.7967
 IR Inten    --     24.8340               107.6431                 1.1182

                     70                     71                     72
                      A                      A                      A
 Frequencies --   1369.2404              1400.5234              1424.0136
 Red. masses --      3.1557                 2.1567                 3.0443
 Frc consts  --      3.4858                 2.4924                 3.6372
 IR Inten    --      4.0987                70.8667                97.6761

                     73                     74                     75
                      A                      A                      A
 Frequencies --   1474.2687              1493.9302              1505.1957
 Red. masses --      2.6098                 2.1973                 2.1417
 Frc consts  --      3.3421                 2.8893                 2.8589
 IR Inten    --      5.7739                23.7506                32.4605

                     76                     77                     78
                      A                      A                      A
 Frequencies --   1520.0183              1521.8574              1542.8437
 Red. masses --      2.6172                 2.0614                 2.4332
 Frc consts  --      3.5627                 2.8129                 3.4125
 IR Inten    --     15.7197                 4.1180                37.6927

                     79                     80                     81
                      A                      A                      A
 Frequencies --   1641.0483              1645.2746              1649.0724
 Red. masses --      5.4593                 5.9034                 5.2211
 Frc consts  --      8.6623                 9.4152                 8.3655
 IR Inten    --      4.2621                 0.1442               265.6066

                     82                     83                     84
                      A                      A                      A
 Frequencies --   1654.3294              1665.0354              3218.9656
 Red. masses --      5.5940                 5.4087                 1.0870
 Frc consts  --      9.0202                 8.8346                 6.6361
 IR Inten    --     47.9591               244.0740                 0.3426

                     85                     86                     87
                      A                      A                      A
 Frequencies --   3219.4742              3229.0934              3230.7974
 Red. masses --      1.0871                 1.0901                 1.0898
 Frc consts  --      6.6388                 6.6971                 6.7020
 IR Inten    --      1.8411                13.3560                13.9654

                     88                     89                     90
                      A                      A                      A
 Frequencies --   3236.6031              3238.0884              3245.7618
 Red. masses --      1.0938                 1.0936                 1.0955
 Frc consts  --      6.7511                 6.7561                 6.7999
 IR Inten    --     30.2064                19.0359                 7.2269

                     91                     92                     93
                      A                      A                      A
 Frequencies --   3247.3494              3252.7513              3254.7783
 Red. masses --      1.0950                 1.0948                 1.0939
 Frc consts  --      6.8034                 6.8245                 6.8277
 IR Inten    --      7.8694                 1.9821                 5.7972

                     94                     95                     96
                      A                      A                      A
 Frequencies --   3358.4389              3502.8101              3544.7334
 Red. masses --      1.1018                 1.0767                 1.0865
 Frc consts  --      7.3221                 7.7832                 8.0436
 IR Inten    --     26.9676               226.2089               528.0675

 - Thermochemistry -
 -------------------
 Temperature   298.150 Kelvin.  Pressure   1.00000 Atm.
 Atom     1 has atomic number  8 and mass  15.99491

 Molecular mass:   301.07592 amu.
 Principal axes and moments of inertia in atomic units:
                           1         2         3
     Eigenvalues --  1699.85720********************
           X            0.99921  -0.03916   0.00640
           Y            0.03968   0.98778  -0.15071
           Z           -0.00042   0.15084   0.98856
 This molecule is an asymmetric top.
 Rotational symmetry number  1.
 Warning -- assumption of classical behavior for rotation
           may cause significant error
 Rotational temperatures (Kelvin)      0.05095     0.00509     0.00502
 Rotational constants (GHZ):           1.06170     0.10614     0.10457
 Zero-point vibrational energy     687599.9 (Joules/Mol)
                                  164.34031 (Kcal/Mol)
 Warning -- explicit consideration of  25 degrees of freedom as
           vibrations may cause significant error
 Vibrational temperatures:     25.76    27.28    38.16    61.93   102.62
          (Kelvin)            147.04   162.52   190.41   258.64   311.40
                              365.52   407.01   414.44   448.71   533.49
                              557.35   586.35   593.97   601.92   651.48
                              687.21   716.15   773.63   802.16   832.40
                              898.55   900.74   963.86   981.47   997.99
                             1005.19  1009.32  1019.30  1047.50  1099.01
                             1122.39  1146.74  1193.96  1196.37  1227.24
                             1234.02  1359.58  1366.40  1419.65  1425.12
                             1449.73  1457.96  1464.03  1471.32  1471.75
                             1507.62  1516.95  1547.87  1557.79  1598.47
                             1600.30  1602.67  1634.99  1716.26  1720.16
                             1732.02  1736.32  1762.19  1797.57  1863.95
                             1933.47  1938.34  1945.53  1965.66  1970.03
                             2015.04  2048.84  2121.14  2149.43  2165.64
                             2186.97  2189.61  2219.81  2361.10  2367.18
                             2372.65  2380.21  2395.61  4631.37  4632.11
                             4645.95  4648.40  4656.75  4658.89  4669.93
                             4672.21  4679.98  4682.90  4832.04  5039.76
                             5100.08

 Zero-point correction=                           0.261893 (Hartree/Particle)
 Thermal correction to Energy=                    0.279265
 Thermal correction to Enthalpy=                  0.280209
 Thermal correction to Gibbs Free Energy=         0.213109
 Sum of electronic and zero-point Energies=          -1308.454208
 Sum of electronic and thermal Energies=             -1308.436836
 Sum of electronic and thermal Enthalpies=           -1308.435892
 Sum of electronic and thermal Free Energies=        -1308.502992

                     E (Thermal)             CV                S
                      KCal/Mol        Cal/Mol-Kelvin    Cal/Mol-Kelvin
 Total                  175.241             67.543            141.223
 Electronic               0.000              0.000              0.000
 Translational            0.889              2.981             43.003
 Rotational               0.889              2.981             34.566
 Vibrational            173.464             61.582             63.654
 Vibration     1          0.593              1.986              6.854
 Vibration     2          0.593              1.986              6.740
 Vibration     3          0.593              1.984              6.074
 Vibration     4          0.595              1.980              5.114
 Vibration     5          0.598              1.968              4.117
 Vibration     6          0.604              1.947              3.412
 Vibration     7          0.607              1.939              3.217
 Vibration     8          0.612              1.921              2.912
 Vibration     9          0.629              1.867              2.331
 Vibration    10          0.645              1.816              1.989
 Vibration    11          0.665              1.756              1.702
 Vibration    12          0.682              1.705              1.516
 Vibration    13          0.685              1.696              1.485
 Vibration    14          0.700              1.651              1.352
 Vibration    15          0.743              1.532              1.076
 Vibration    16          0.756              1.497              1.010
 Vibration    17          0.772              1.454              0.935
 Vibration    18          0.777              1.442              0.917
 Vibration    19          0.781              1.430              0.898
 Vibration    20          0.811              1.355              0.787
 Vibration    21          0.834              1.300              0.716
 Vibration    22          0.853              1.255              0.664
 Vibration    23          0.893              1.167              0.570
 Vibration    24          0.913              1.123              0.529
 Vibration    25          0.935              1.078              0.488

                           ! Non-Optimized Parameters !
 Normal termination of Gaussian 16 at Thu Sep 24 15:29:56 2020.

 ----------------------------------------------------------------------
 #p b3lyp/6-31G(d) scrf=(iefpcm,read,solvent=water) geom=allcheck guess
 =read
 ----------------------------------------------------------------------

 Structure from the checkpoint file:  "SM45_m2.b.8.pdb.xyz.mst.b.w.chk"
 -------------------
 SM45_m2.b.8.pdb.xyz
 -------------------
 Charge =  1 Multiplicity = 1

 SCF Done:  E(RB3LYP) =  -1308.71579152     A.U. after    7 cycles
 Normal termination of Gaussian 16 at Thu Sep 24 15:30:37 2020.

 -----------------------------
 #p B3LYP/6-31G* geom=allcheck
 -----------------------------

 Structure from the checkpoint file:  "SM45_m2.b.8.pdb.xyz.mst.b.w.chk"
 -------------------
 SM45_m2.b.8.pdb.xyz
 -------------------
 Charge =  1 Multiplicity = 1

 SCF Done:  E(RB3LYP) =  -1308.62069794     A.U. after   16 cycles

 The electronic state is 1-A.
 Alpha  occ. eigenvalues --  -89.24725 -19.27901 -19.27602 -14.63416 -14.61923
 Alpha  occ. eigenvalues --  -14.59574 -14.53901 -10.46516 -10.41671 -10.38526
 Alpha  occ. eigenvalues --  -10.34417 -10.33887 -10.33336 -10.32444 -10.32345
 Alpha  occ. eigenvalues --  -10.32260 -10.32171 -10.31991 -10.31037 -10.30963
 Alpha  occ. eigenvalues --  -10.30802  -8.27330  -6.23919  -6.23708  -6.23545
 Alpha  occ. eigenvalues --   -1.32228  -1.24584  -1.14676  -1.13297  -1.10211
 Alpha  occ. eigenvalues --   -1.00149  -0.99888  -0.98281  -0.92285  -0.89542
 Alpha  occ. eigenvalues --   -0.88700  -0.87002  -0.84849  -0.83914  -0.81106
 Alpha  occ. eigenvalues --   -0.75650  -0.74660  -0.73596  -0.73035  -0.71971
 Alpha  occ. eigenvalues --   -0.69878  -0.68240  -0.68135  -0.66675  -0.64829
 Alpha  occ. eigenvalues --   -0.63164  -0.62527  -0.59957  -0.59084  -0.58587
 Alpha  occ. eigenvalues --   -0.57125  -0.56439  -0.56132  -0.56007  -0.54591
 Alpha  occ. eigenvalues --   -0.54469  -0.52392  -0.50788  -0.49439  -0.49299
 Alpha  occ. eigenvalues --   -0.49004  -0.48244  -0.48067  -0.48036  -0.46790
 Alpha  occ. eigenvalues --   -0.45193  -0.44082  -0.43236  -0.41312  -0.38762
 Alpha  occ. eigenvalues --   -0.38549  -0.37732  -0.37209
 Alpha virt. eigenvalues --   -0.21434  -0.16354  -0.14718  -0.13621  -0.12285
 Alpha virt. eigenvalues --   -0.12086  -0.08459  -0.07719  -0.04839  -0.04291
 Alpha virt. eigenvalues --   -0.03246  -0.02589  -0.02008  -0.01628   0.01304

 Mulliken charges:
               1
     1  O   -0.540795
     2  S    1.210740
     3  N   -0.795759
     4  C    0.553742
     5  N   -0.398056
     6  N    0.028746
     7  C    0.035780
     8  N   -0.331612
     9  C    0.304823
    10  C   -0.154623
    11  C   -0.136744
    12  C   -0.102612
    13  C   -0.136619
    14  C   -0.132420
    15  C   -0.161625
    16  C   -0.120449
    17  C   -0.124162
    18  C   -0.109990
    19  C   -0.123283
    20  C   -0.135058
    21  O   -0.477377
    22  H    0.388526
    23  H    0.250277
    24  H    0.163832
    25  H    0.181196
    26  H    0.183243
    27  H    0.184275
    28  H    0.191261
    29  H    0.159894
    30  H    0.173019
    31  H    0.177547
    32  H    0.177566
    33  H    0.198910
    34  H    0.417808
 Sum of Mulliken charges =   1.00000

 Dipole moment (field-independent basis, Debye):
    X=             -4.2299    Y=              0.0371    Z=             -4.9746  Tot=              6.5299
 Quadrupole moment (field-independent basis, Debye-Ang):
   XX=            -22.8682   YY=           -109.0922   ZZ=           -127.7639
   XY=              5.6315   XZ=            -11.0638   YZ=              7.1000

 Normal termination of Gaussian 16 at Thu Sep 24 15:31:28 2020.
 Gaussian 16:  ES64L-G16RevB.01 20-Dec-2017

 ----------------------------------------------------------------------
 #p mp2/aug-cc-pVDZ scf=(MaxCycle=2000,NoVarAcc,NoIncFock) maxdisk=120G
 B geom=allcheck
 ----------------------------------------------------------------------

 Structure from the checkpoint file:  "SM45_m2.b.8.pdb.xyz.mst.b.w.chk"
 -------------------
 SM45_m2.b.8.pdb.xyz
 -------------------
 Charge =  1 Multiplicity = 1

                         Standard orientation:
 ---------------------------------------------------------------------
 Center     Atomic      Atomic             Coordinates (Angstroms)
 Number     Number       Type             X           Y           Z
 ---------------------------------------------------------------------
      1          8           0        1.611448    0.726803    1.705483
      2         16           0        2.059831   -0.430449    0.924951
      3          7           0        0.952394   -0.524867   -0.398272
      4          6           0       -0.346275   -0.078959   -0.239949
      5          7           0       -0.680828    1.219144   -0.004456
      6          7           0       -1.980193    1.419975    0.042196
      7          6           0       -1.555713   -0.733812   -0.355583
      8          7           0       -2.501852    0.228750   -0.185839
      9          6           0       -3.926447    0.066438   -0.205069
     10          6           0       -4.481970   -0.922549   -1.015663
     11          6           0       -5.866864   -1.079667   -1.020982
     12          6           0       -6.672696   -0.253521   -0.235169
     13          6           0       -6.094656    0.734870    0.565532
     14          6           0       -4.711785    0.899533    0.591158
     15          6           0        3.588237   -0.072130    0.092601
     16          6           0        3.831449    1.230686   -0.349594
     17          6           0        5.037766    1.498002   -0.990765
     18          6           0        5.974036    0.477539   -1.180017
     19          6           0        5.714335   -0.816840   -0.726572
     20          6           0        4.512030   -1.103094   -0.080983
     21          8           0        2.165761   -1.748386    1.558317
     22          1           0        1.015826   -1.431855   -0.866819
     23          1           0       -1.786604   -1.770733   -0.521887
     24          1           0       -3.853024   -1.543269   -1.641972
     25          1           0       -6.312644   -1.842976   -1.648259
     26          1           0       -7.749472   -0.379798   -0.246136
     27          1           0       -6.717481    1.373931    1.180760
     28          1           0       -4.245768    1.648879    1.217961
     29          1           0        3.100430    2.014114   -0.191315
     30          1           0        5.247793    2.502372   -1.339615
     31          1           0        6.911105    0.694713   -1.680528
     32          1           0        6.445562   -1.603807   -0.870769
     33          1           0        4.290750   -2.096776    0.287061
     34          1           0       -0.056762    2.015062    0.142823
 ---------------------------------------------------------------------

 SCF Done:  E(RHF) =  -1302.53350346     A.U. after   17 cycles
