 Gaussian 16, Revision B.01,

 ----------------------------------------------------------------------
 #p b3lyp/6-31G(d) opt freq NoSymm scf=(MaxCycle=2000,NoVarAcc,NoIncFoc
 k) scrf=(iefpcm,read,solvent=water)
 ----------------------------------------------------------------------

 -------------------
 SM45_m1.a.5.pdb.xyz
 -------------------
 Symbolic Z-matrix:
 Charge = -1 Multiplicity = 1

 SCF Done:  E(RB3LYP) =  -1307.79826884     A.U. after   13 cycles
 SCF Done:  E(RB3LYP) =  -1307.79818276     A.U. after   10 cycles
 SCF Done:  E(RB3LYP) =  -1307.79811942     A.U. after    9 cycles
 SCF Done:  E(RB3LYP) =  -1307.79826462     A.U. after   10 cycles
 SCF Done:  E(RB3LYP) =  -1307.79827001     A.U. after    9 cycles
 SCF Done:  E(RB3LYP) =  -1307.79809388     A.U. after   10 cycles
 SCF Done:  E(RB3LYP) =  -1307.79808208     A.U. after    9 cycles
 SCF Done:  E(RB3LYP) =  -1307.79826238     A.U. after   10 cycles
 SCF Done:  E(RB3LYP) =  -1307.79826994     A.U. after    9 cycles
 SCF Done:  E(RB3LYP) =  -1307.79811175     A.U. after   10 cycles
 SCF Done:  E(RB3LYP) =  -1307.79826989     A.U. after    9 cycles
 SCF Done:  E(RB3LYP) =  -1307.79808492     A.U. after   10 cycles
 SCF Done:  E(RB3LYP) =  -1307.79807795     A.U. after    7 cycles
 SCF Done:  E(RB3LYP) =  -1307.79826215     A.U. after   10 cycles
 SCF Done:  E(RB3LYP) =  -1307.79826994     A.U. after    9 cycles
 SCF Done:  E(RB3LYP) =  -1307.79807835     A.U. after   10 cycles
 Optimization completed.
    -- Stationary point found.
 Normal termination of Gaussian 16 at Thu Sep 24 15:07:29 2020.

 --------------------------------------------------------------------
 #P Geom=AllCheck Guess=TCheck SCRF=Check GenChk RB3LYP/6-31G(d) Freq
 --------------------------------------------------------------------

 Structure from the checkpoint file:  "SM45_m1.a.5.pdb.xyz.mst.a.w.chk"
 -------------------
 SM45_m1.a.5.pdb.xyz
 -------------------
 Charge = -1 Multiplicity = 1

 SCF Done:  E(RB3LYP) =  -1307.79807835     A.U. after    1 cycles

  Exact polarizability: 327.277   0.164 210.276 -18.985  43.630 266.712
 Approx polarizability: 340.782   5.082 244.789 -19.194  46.531 340.958

                      1                      2                      3
                      A                      A                      A
 Frequencies --     16.9992                23.6186                35.6896
 Red. masses --      5.7791                 4.0458                 4.2478
 Frc consts  --      0.0010                 0.0013                 0.0032
 IR Inten    --      4.8225                 1.3776                 1.5234

                      4                      5                      6
                      A                      A                      A
 Frequencies --     57.7851                81.7931                87.1352
 Red. masses --      7.0851                 5.1986                 7.1176
 Frc consts  --      0.0139                 0.0205                 0.0318
 IR Inten    --      1.7786                 8.6851                 0.4479

                      7                      8                      9
                      A                      A                      A
 Frequencies --    125.9953               149.8892               185.5946
 Red. masses --      8.4128                 6.4139                 6.7035
 Frc consts  --      0.0787                 0.0849                 0.1360
 IR Inten    --      1.3792                 0.2483                 2.7609

                     10                     11                     12
                      A                      A                      A
 Frequencies --    232.5450               255.3633               279.5739
 Red. masses --      5.9195                 6.4235                 8.0956
 Frc consts  --      0.1886                 0.2468                 0.3728
 IR Inten    --      6.3274                 9.2280                 7.6931

                     13                     14                     15
                      A                      A                      A
 Frequencies --    306.4338               327.9115               372.6947
 Red. masses --      7.7798                 8.6789                 7.6126
 Frc consts  --      0.4304                 0.5498                 0.6230
 IR Inten    --      5.5075                 8.3070                13.1408

                     16                     17                     18
                      A                      A                      A
 Frequencies --    392.9971               414.1656               418.6794
 Red. masses --      8.1580                 2.9845                 3.0573
 Frc consts  --      0.7424                 0.3016                 0.3158
 IR Inten    --      1.9994                 0.4386                 0.2137

                     19                     20                     21
                      A                      A                      A
 Frequencies --    442.6518               463.7514               494.0612
 Red. masses --     10.3703                 6.7930                 4.4011
 Frc consts  --      1.1972                 0.8608                 0.6330
 IR Inten    --      5.3194                23.8028                11.2306

                     22                     23                     24
                      A                      A                      A
 Frequencies --    531.3813               549.0701               588.1575
 Red. masses --      3.6009                13.7618                 6.8462
 Frc consts  --      0.5991                 2.4445                 1.3954
 IR Inten    --     36.0243               183.0752               193.2674

                     25                     26                     27
                      A                      A                      A
 Frequencies --    627.6725               628.2795               670.6167
 Red. masses --      6.4311                 6.4096                 3.8162
 Frc consts  --      1.4928                 1.4907                 1.0112
 IR Inten    --      0.1320                 0.0663                 7.4149

                     28                     29                     30
                      A                      A                      A
 Frequencies --    693.6214               696.2857               702.4027
 Red. masses --      3.5922                 3.5642                 2.5378
 Frc consts  --      1.0182                 1.0181                 0.7377
 IR Inten    --     12.2351                 5.4886                52.1892

                     31                     32                     33
                      A                      A                      A
 Frequencies --    705.3518               708.8886               740.8631
 Red. masses --      2.3420                 6.6010                 2.5761
 Frc consts  --      0.6865                 1.9544                 0.8331
 IR Inten    --     19.4695                25.6848               108.6884

                     34                     35                     36
                      A                      A                      A
 Frequencies --    751.4992               762.5419               777.3418
 Red. masses --      8.2789                 1.5524                 1.6570
 Frc consts  --      2.7547                 0.5318                 0.5899
 IR Inten    --    163.6548                38.7404                56.0074

                     37                     38                     39
                      A                      A                      A
 Frequencies --    853.9636               861.3287               930.0751
 Red. masses --      1.2507                 1.2472                 5.9090
 Frc consts  --      0.5374                 0.5451                 3.0116
 IR Inten    --      0.2579                 0.1506               166.3505

                     40                     41                     42
                      A                      A                      A
 Frequencies --    931.3685               936.3041               980.5682
 Red. masses --      1.4246                 1.4428                 1.3425
 Frc consts  --      0.7281                 0.7452                 0.7605
 IR Inten    --     12.9800                19.0193                 0.1441

                     43                     44                     45
                      A                      A                      A
 Frequencies --    983.3595               998.6702              1006.7174
 Red. masses --      1.3519                 7.4811                 1.2605
 Frc consts  --      0.7702                 4.3960                 0.7527
 IR Inten    --      0.4616                52.1260                 0.3423

                     46                     47                     48
                      A                      A                      A
 Frequencies --   1010.0312              1014.7420              1018.0537
 Red. masses --      1.2597                 6.4882                 5.9647
 Frc consts  --      0.7571                 3.9363                 3.6423
 IR Inten    --      0.0442                 8.1365                 0.9468

                     49                     50                     51
                      A                      A                      A
 Frequencies --   1045.7547              1051.3806              1055.9931
 Red. masses --      4.5511                 2.6076                 2.9395
 Frc consts  --      2.9324                 1.6983                 1.9313
 IR Inten    --     72.0241                 1.5204                44.1153

                     52                     53                     54
                      A                      A                      A
 Frequencies --   1068.0871              1087.7726              1105.2011
 Red. masses --      2.3659                 4.4772                 1.5823
 Frc consts  --      1.5902                 3.1213                 1.1388
 IR Inten    --    305.0981               307.7304                20.8337

                     55                     56                     57
                      A                      A                      A
 Frequencies --   1110.6168              1121.4450              1186.7349
 Red. masses --      1.6711                 3.4711                 1.0977
 Frc consts  --      1.2145                 2.5720                 0.9108
 IR Inten    --     28.8150               195.2223                 0.1435

                     58                     59                     60
                      A                      A                      A
 Frequencies --   1187.0937              1198.8949              1203.0534
 Red. masses --      1.1025                 1.7974                 1.2783
 Frc consts  --      0.9153                 1.5222                 1.0900
 IR Inten    --      1.6347               139.4759                36.9387

                     61                     62                     63
                      A                      A                      A
 Frequencies --   1204.3887              1236.1090              1247.8408
 Red. masses --      2.2946                 4.5665                 5.2217
 Frc consts  --      1.9610                 4.1110                 4.7905
 IR Inten    --    203.7630                45.7441                 9.4510

                     64                     65                     66
                      A                      A                      A
 Frequencies --   1280.3983              1335.8340              1339.0221
 Red. masses --      2.9292                 2.3651                 1.8785
 Frc consts  --      2.8293                 2.4866                 1.9844
 IR Inten    --    250.0398               107.2179                51.9209

                     67                     68                     69
                      A                      A                      A
 Frequencies --   1359.7805              1366.5133              1378.3766
 Red. masses --      4.8990                 2.6556                 3.3996
 Frc consts  --      5.3370                 2.9217                 3.8055
 IR Inten    --      2.8032                 1.5156               400.9906

                     70                     71                     72
                      A                      A                      A
 Frequencies --   1455.1933              1488.2009              1511.2880
 Red. masses --      4.4983                 2.1476                 2.5142
 Frc consts  --      5.6122                 2.8024                 3.3834
 IR Inten    --    210.0068                18.6284                22.6043

                     73                     74                     75
                      A                      A                      A
 Frequencies --   1524.3361              1546.8356              1582.5281
 Red. masses --      2.0905                 2.7032                 6.4809
 Frc consts  --      2.8620                 3.8108                 9.5629
 IR Inten    --      6.4450               395.9762               389.1066

                     76                     77                     78
                      A                      A                      A
 Frequencies --   1642.8037              1644.3938              1651.6770
 Red. masses --      5.8303                 5.5557                 6.3355
 Frc consts  --      9.2707                 8.8512                10.1831
 IR Inten    --      0.2689                 0.0920                 6.0877

                     79                     80                     81
                      A                      A                      A
 Frequencies --   1658.8659              3205.5812              3210.9790
 Red. masses --      5.6918                 1.0860                 1.0861
 Frc consts  --      9.2284                 6.5753                 6.5976
 IR Inten    --     42.7143                 1.6890                 0.7348

                     82                     83                     84
                      A                      A                      A
 Frequencies --   3213.6647              3218.9793              3223.1915
 Red. masses --      1.0890                 1.0900                 1.0928
 Frc consts  --      6.6262                 6.6545                 6.6888
 IR Inten    --     17.6591                21.6722                33.4912

                     85                     86                     87
                      A                      A                      A
 Frequencies --   3229.9094              3231.3095              3239.7345
 Red. masses --      1.0941                 1.0964                 1.0950
 Frc consts  --      6.7249                 6.7450                 6.7717
 IR Inten    --     46.5656                30.5321                11.9896

                     88                     89                     90
                      A                      A                      A
 Frequencies --   3247.6736              3254.6303              3334.0902
 Red. masses --      1.0918                 1.0928                 1.0982
 Frc consts  --      6.7851                 6.8204                 7.1925
 IR Inten    --      7.5556                 2.9078                 5.8687

 - Thermochemistry -
 -------------------
 Temperature   298.150 Kelvin.  Pressure   1.00000 Atm.
 Atom     1 has atomic number  8 and mass  15.99491

 Molecular mass:   299.06027 amu.
 Principal axes and moments of inertia in atomic units:
                           1         2         3
     Eigenvalues --  2909.72124********************
           X            0.99626   0.08057   0.03116
           Y           -0.05271   0.85276  -0.51964
           Z           -0.06844   0.51606   0.85381
 This molecule is an asymmetric top.
 Rotational symmetry number  1.
 Warning -- assumption of classical behavior for rotation
           may cause significant error
 Rotational temperatures (Kelvin)      0.02977     0.00661     0.00595
 Rotational constants (GHZ):           0.62025     0.13772     0.12404
 Zero-point vibrational energy     617934.9 (Joules/Mol)
                                  147.68998 (Kcal/Mol)
 Warning -- explicit consideration of  24 degrees of freedom as
           vibrations may cause significant error
 Vibrational temperatures:     24.46    33.98    51.35    83.14   117.68
          (Kelvin)            125.37   181.28   215.66   267.03   334.58
                              367.41   402.24   440.89   471.79   536.22
                              565.44   595.89   602.39   636.88   667.23
                              710.84   764.54   789.99   846.23   903.08
                              903.95   964.87   997.97  1001.80  1010.60
                             1014.84  1019.93  1065.94  1081.24  1097.13
                             1118.42  1228.66  1239.26  1338.17  1340.03
                             1347.13  1410.82  1414.83  1436.86  1448.44
                             1453.21  1459.99  1464.75  1504.61  1512.70
                             1519.34  1536.74  1565.06  1590.14  1597.93
                             1613.51  1707.45  1707.96  1724.94  1730.93
                             1732.85  1778.49  1795.36  1842.21  1921.97
                             1926.55  1956.42  1966.11  1983.18  2093.70
                             2141.19  2174.41  2193.18  2225.55  2276.90
                             2363.63  2365.92  2376.39  2386.74  4612.12
                             4619.88  4623.75  4631.39  4637.45  4647.12
                             4649.13  4661.26  4672.68  4682.69  4797.01

 Zero-point correction=                           0.235359 (Hartree/Particle)
 Thermal correction to Energy=                    0.252195
 Thermal correction to Enthalpy=                  0.253139
 Thermal correction to Gibbs Free Energy=         0.187589
 Sum of electronic and zero-point Energies=          -1307.562719
 Sum of electronic and thermal Energies=             -1307.545884
 Sum of electronic and thermal Enthalpies=           -1307.544940
 Sum of electronic and thermal Free Energies=        -1307.610490

                     E (Thermal)             CV                S
                      KCal/Mol        Cal/Mol-Kelvin    Cal/Mol-Kelvin
 Total                  158.255             65.399            137.962
 Electronic               0.000              0.000              0.000
 Translational            0.889              2.981             42.983
 Rotational               0.889              2.981             34.672
 Vibrational            156.477             59.438             60.307
 Vibration     1          0.593              1.986              6.957
 Vibration     2          0.593              1.985              6.304
 Vibration     3          0.594              1.982              5.485
 Vibration     4          0.596              1.974              4.531
 Vibration     5          0.600              1.962              3.847
 Vibration     6          0.601              1.958              3.723
 Vibration     7          0.611              1.927              3.006
 Vibration     8          0.618              1.903              2.674
 Vibration     9          0.632              1.860              2.271
 Vibration    10          0.653              1.791              1.859
 Vibration    11          0.666              1.754              1.693
 Vibration    12          0.680              1.711              1.536
 Vibration    13          0.697              1.661              1.382
 Vibration    14          0.711              1.620              1.270
 Vibration    15          0.744              1.528              1.069
 Vibration    16          0.760              1.485              0.989
 Vibration    17          0.778              1.439              0.912
 Vibration    18          0.782              1.430              0.896
 Vibration    19          0.802              1.377              0.818
 Vibration    20          0.821              1.330              0.755
 Vibration    21          0.850              1.263              0.673
 Vibration    22          0.886              1.181              0.584
 Vibration    23          0.904              1.142              0.546
 Vibration    24          0.945              1.057              0.470

                           ! Non-Optimized Parameters !
 Normal termination of Gaussian 16 at Thu Sep 24 15:18:19 2020.

 ----------------------------------------------------------------------
 #p b3lyp/6-31G(d) scrf=(iefpcm,read,solvent=water) geom=allcheck guess
 =read
 ----------------------------------------------------------------------

 Structure from the checkpoint file:  "SM45_m1.a.5.pdb.xyz.mst.a.w.chk"
 -------------------
 SM45_m1.a.5.pdb.xyz
 -------------------
 Charge = -1 Multiplicity = 1

 SCF Done:  E(RB3LYP) =  -1307.79806402     A.U. after    7 cycles
 Normal termination of Gaussian 16 at Thu Sep 24 15:19:00 2020.

 -----------------------------
 #p B3LYP/6-31G* geom=allcheck
 -----------------------------

 Structure from the checkpoint file:  "SM45_m1.a.5.pdb.xyz.mst.a.w.chk"
 -------------------
 SM45_m1.a.5.pdb.xyz
 -------------------
 Charge = -1 Multiplicity = 1

 SCF Done:  E(RB3LYP) =  -1307.69407712     A.U. after   15 cycles
 Normal termination of Gaussian 16 at Thu Sep 24 15:19:47 2020.
 Gaussian 16:  ES64L-G16RevB.01 20-Dec-2017

 ----------------------------------------------------------------------
 #p mp2/aug-cc-pVDZ scf=(MaxCycle=2000,NoVarAcc,NoIncFock) maxdisk=120G
 B geom=allcheck
 ----------------------------------------------------------------------

 Structure from the checkpoint file:  "SM45_m1.a.5.pdb.xyz.mst.a.w.chk"
 -------------------
 SM45_m1.a.5.pdb.xyz
 -------------------
 Charge = -1 Multiplicity = 1

                         Standard orientation:
 ---------------------------------------------------------------------
 Center     Atomic      Atomic             Coordinates (Angstroms)
 Number     Number       Type             X           Y           Z
 ---------------------------------------------------------------------
      1          8           0        3.395043   -2.352650    0.558376
      2         16           0        2.447562   -1.480811   -0.185275
      3          7           0        1.027100   -1.656515    0.527020
      4          6           0       -0.074655   -0.962374    0.073321
      5          7           0       -0.127983   -0.039953   -0.947725
      6          7           0       -1.355503    0.420566   -1.062716
      7          6           0       -1.356357   -1.060827    0.603137
      8          7           0       -2.107439   -0.189532   -0.126698
      9          6           0       -3.494309    0.097585   -0.006966
     10          6           0       -4.344670   -0.830207    0.601179
     11          6           0       -5.701719   -0.535534    0.725745
     12          6           0       -6.211894    0.668388    0.237096
     13          6           0       -5.353769    1.584498   -0.376718
     14          6           0       -3.993272    1.308827   -0.496384
     15          6           0        3.030013    0.205975    0.082717
     16          6           0        3.258027    0.647846    1.389219
     17          6           0        3.712848    1.948298    1.602647
     18          6           0        3.938075    2.799497    0.516641
     19          6           0        3.708471    2.350475   -0.784612
     20          6           0        3.251533    1.049111   -1.004911
     21          8           0        2.448557   -1.675041   -1.662476
     22          1           0       -1.754187   -1.635308    1.421095
     23          1           0       -3.953531   -1.774237    0.961049
     24          1           0       -6.359929   -1.255985    1.198906
     25          1           0       -7.268676    0.891424    0.333669
     26          1           0       -5.740658    2.524048   -0.756284
     27          1           0       -3.316171    2.015615   -0.957814
     28          1           0        3.083834   -0.017562    2.227465
     29          1           0        3.893212    2.296991    2.613962
     30          1           0        4.292122    3.810670    0.686852
     31          1           0        3.883822    3.009979   -1.628156
     32          1           0        3.067210    0.677554   -2.005363
 ---------------------------------------------------------------------

 SCF Done:  E(RHF) =  -1301.61143743     A.U. after   17 cycles
 E2 =    -0.3151043726D+01 EUMP2 =    -0.13047624811534D+04

 The electronic state is 1-A.
 Alpha  occ. eigenvalues --  -92.04602 -20.37751 -20.37453 -15.55632 -15.52811
 Alpha  occ. eigenvalues --  -15.47358 -15.38585 -11.21943 -11.17960 -11.17801
 Alpha  occ. eigenvalues --  -11.17278 -11.17226 -11.17222 -11.16824 -11.14674
 Alpha  occ. eigenvalues --  -11.14582 -11.14349 -11.14191 -11.14044 -11.14016
 Alpha  occ. eigenvalues --  -11.13581  -9.01277  -6.69831  -6.69756  -6.69727
 Alpha  occ. eigenvalues --   -1.31931  -1.26937  -1.14530  -1.12832  -1.07004
 Alpha  occ. eigenvalues --   -1.05211  -1.04280  -0.95605  -0.94509  -0.92840
 Alpha  occ. eigenvalues --   -0.91477  -0.91317  -0.78991  -0.77465  -0.75533
 Alpha  occ. eigenvalues --   -0.72523  -0.70599  -0.69979  -0.66460  -0.63429
 Alpha  occ. eigenvalues --   -0.60646  -0.58552  -0.56304  -0.55627  -0.54260
 Alpha  occ. eigenvalues --   -0.52750  -0.52579  -0.51991  -0.51332  -0.50635
 Alpha  occ. eigenvalues --   -0.49259  -0.48562  -0.46030  -0.44564  -0.43678
 Alpha  occ. eigenvalues --   -0.43326  -0.41637  -0.40508  -0.39738  -0.39175
 Alpha  occ. eigenvalues --   -0.35491  -0.33491  -0.33348  -0.31444  -0.30554
 Alpha  occ. eigenvalues --   -0.29465  -0.28238  -0.27181  -0.25223  -0.24060
 Alpha  occ. eigenvalues --   -0.23242  -0.22784  -0.15452
 Alpha virt. eigenvalues --    0.08682   0.09668   0.10336   0.10773   0.11439
 Alpha virt. eigenvalues --    0.12477   0.12757   0.13607   0.14225   0.15519
 Alpha virt. eigenvalues --    0.15755   0.17075   0.17361   0.17666   0.18700

 Mulliken charges:
               1
     1  O   -1.248279
     2  S    3.114595
     3  N   -1.261695
     4  C   -0.135286
     5  N   -0.629632
     6  N   -0.230883
     7  C    1.438913
     8  N   -0.574061
     9  C    0.841791
    10  C    0.093640
    11  C    0.697044
    12  C    0.625344
    13  C    0.592373
    14  C    0.489505
    15  C    0.535504
    16  C    0.002298
    17  C    0.340632
    18  C    0.585946
    19  C    0.453831
    20  C    0.371040
    21  O   -1.339756
    22  H   -0.561786
    23  H   -0.658855
    24  H   -0.454970
    25  H   -0.463030
    26  H   -0.449388
    27  H   -0.531550
    28  H   -0.630270
    29  H   -0.477994
    30  H   -0.467914
    31  H   -0.479809
    32  H   -0.587298
 Sum of Mulliken charges =  -1.00000

 Dipole moment (field-independent basis, Debye):
    X=             -9.6133    Y=              7.5031    Z=              2.9709  Tot=             12.5515
 Quadrupole moment (field-independent basis, Debye-Ang):
   XX=           -165.1440   YY=           -149.8776   ZZ=           -141.1643
   XY=             25.8402   XZ=             -1.1428   YZ=             -4.4722

 Normal termination of Gaussian 16 at Thu Sep 24 16:20:53 2020.
