 Gaussian 16, Revision B.01,

 ----------------------------------------------------------------------
 #p b3lyp/6-31G(d) opt freq NoSymm scf=(MaxCycle=2000,NoVarAcc,NoIncFoc
 k) scrf=(iefpcm,read,solvent=water)
 ----------------------------------------------------------------------

 -------------------
 SM45_m1.a.6.pdb.xyz
 -------------------
 Symbolic Z-matrix:
 Charge = -1 Multiplicity = 1

 SCF Done:  E(RB3LYP) =  -1307.79824938     A.U. after   13 cycles
 SCF Done:  E(RB3LYP) =  -1307.79816757     A.U. after   10 cycles
 SCF Done:  E(RB3LYP) =  -1307.79810091     A.U. after   10 cycles
 SCF Done:  E(RB3LYP) =  -1307.79824613     A.U. after   10 cycles
 SCF Done:  E(RB3LYP) =  -1307.79825125     A.U. after    9 cycles
 SCF Done:  E(RB3LYP) =  -1307.79808180     A.U. after   10 cycles
 SCF Done:  E(RB3LYP) =  -1307.79806238     A.U. after    9 cycles
 SCF Done:  E(RB3LYP) =  -1307.79824396     A.U. after   10 cycles
 SCF Done:  E(RB3LYP) =  -1307.79825116     A.U. after    9 cycles
 SCF Done:  E(RB3LYP) =  -1307.79809321     A.U. after   10 cycles
 SCF Done:  E(RB3LYP) =  -1307.79824301     A.U. after   10 cycles
 SCF Done:  E(RB3LYP) =  -1307.79825103     A.U. after    9 cycles
 SCF Done:  E(RB3LYP) =  -1307.79802452     A.U. after   11 cycles
 SCF Done:  E(RB3LYP) =  -1307.79802408     A.U. after    6 cycles
 SCF Done:  E(RB3LYP) =  -1307.79824305     A.U. after   10 cycles
 SCF Done:  E(RB3LYP) =  -1307.79802326     A.U. after   10 cycles
 Optimization completed on the basis of negligible forces.
    -- Stationary point found.
 Normal termination of Gaussian 16 at Thu Sep 24 15:21:53 2020.

 --------------------------------------------------------------------
 #P Geom=AllCheck Guess=TCheck SCRF=Check GenChk RB3LYP/6-31G(d) Freq
 --------------------------------------------------------------------

 Structure from the checkpoint file:  "SM45_m1.a.6.pdb.xyz.mst.a.w.chk"
 -------------------
 SM45_m1.a.6.pdb.xyz
 -------------------
 Charge = -1 Multiplicity = 1

 SCF Done:  E(RB3LYP) =  -1307.79802326     A.U. after    1 cycles

  Exact polarizability: 326.689   1.070 211.027 -20.862  43.895 266.725
 Approx polarizability: 340.307   6.291 245.405 -20.355  47.306 341.104

                      1                      2                      3
                      A                      A                      A
 Frequencies --     14.6593                21.0136                31.4367
 Red. masses --      5.4797                 3.9640                 4.4782
 Frc consts  --      0.0007                 0.0010                 0.0026
 IR Inten    --      4.2457                 0.9225                 2.2521

                      4                      5                      6
                      A                      A                      A
 Frequencies --     55.4097                79.7561                85.3696
 Red. masses --      7.2119                 5.1834                 7.3565
 Frc consts  --      0.0130                 0.0194                 0.0316
 IR Inten    --      2.2832                 8.2374                 0.6238

                      7                      8                      9
                      A                      A                      A
 Frequencies --    124.1584               150.0263               181.4860
 Red. masses --      8.1941                 6.3776                 6.6356
 Frc consts  --      0.0744                 0.0846                 0.1288
 IR Inten    --      1.3778                 0.2680                 2.8491

                     10                     11                     12
                      A                      A                      A
 Frequencies --    231.5898               255.7049               279.3770
 Red. masses --      5.8789                 6.4237                 8.1069
 Frc consts  --      0.1858                 0.2475                 0.3728
 IR Inten    --      6.1378                 9.5513                 7.6143

                     13                     14                     15
                      A                      A                      A
 Frequencies --    304.4330               326.9009               372.6643
 Red. masses --      7.7381                 8.6569                 7.6631
 Frc consts  --      0.4225                 0.5451                 0.6270
 IR Inten    --      5.7609                 8.0707                12.7263

                     16                     17                     18
                      A                      A                      A
 Frequencies --    393.0488               413.8173               418.6484
 Red. masses --      8.1340                 2.9841                 3.0577
 Frc consts  --      0.7404                 0.3011                 0.3158
 IR Inten    --      1.8858                 0.4597                 0.2256

                     19                     20                     21
                      A                      A                      A
 Frequencies --    442.2236               463.2478               495.0112
 Red. masses --     10.2601                 6.8076                 4.4231
 Frc consts  --      1.1822                 0.8607                 0.6386
 IR Inten    --      4.9661                24.8749                13.1369

                     22                     23                     24
                      A                      A                      A
 Frequencies --    530.5881               548.1527               587.6296
 Red. masses --      3.5938                13.7028                 6.8700
 Frc consts  --      0.5961                 2.4258                 1.3977
 IR Inten    --     34.4647               182.4900               193.3395

                     25                     26                     27
                      A                      A                      A
 Frequencies --    627.4937               628.5679               669.4743
 Red. masses --      6.4315                 6.4206                 3.4763
 Frc consts  --      1.4920                 1.4946                 0.9180
 IR Inten    --      0.1304                 0.0740                 6.8850

                     28                     29                     30
                      A                      A                      A
 Frequencies --    693.0077               695.6937               702.0212
 Red. masses --      3.0488                 4.4880                 2.5570
 Frc consts  --      0.8627                 1.2798                 0.7425
 IR Inten    --     11.0363                 6.2383                53.0476

                     31                     32                     33
                      A                      A                      A
 Frequencies --    705.2564               708.8076               739.9344
 Red. masses --      2.3431                 6.6080                 2.6991
 Frc consts  --      0.6866                 1.9560                 0.8707
 IR Inten    --     19.5497                25.6091               104.9949

                     34                     35                     36
                      A                      A                      A
 Frequencies --    751.4109               762.4650               777.2238
 Red. masses --      8.1346                 1.5579                 1.6538
 Frc consts  --      2.7061                 0.5336                 0.5886
 IR Inten    --    164.3536                41.3858                56.4421

                     37                     38                     39
                      A                      A                      A
 Frequencies --    853.6361               860.9685               929.9857
 Red. masses --      1.2519                 1.2480                 6.4630
 Frc consts  --      0.5375                 0.5451                 3.2933
 IR Inten    --      0.3000                 0.1431               172.3898

                     40                     41                     42
                      A                      A                      A
 Frequencies --    931.3159               936.1077               980.9462
 Red. masses --      1.4032                 1.4342                 1.3429
 Frc consts  --      0.7171                 0.7405                 0.7614
 IR Inten    --      8.6625                17.8809                 0.1891

                     43                     44                     45
                      A                      A                      A
 Frequencies --    983.3732               998.6452              1007.0378
 Red. masses --      1.3524                 7.4999                 1.2601
 Frc consts  --      0.7705                 4.4068                 0.7529
 IR Inten    --      0.4384                53.8543                 0.3824

                     46                     47                     48
                      A                      A                      A
 Frequencies --   1010.2285              1014.5372              1018.1792
 Red. masses --      1.2602                 6.4783                 5.9710
 Frc consts  --      0.7577                 3.9287                 3.6471
 IR Inten    --      0.0572                 8.0877                 1.1921

                     49                     50                     51
                      A                      A                      A
 Frequencies --   1045.3037              1051.5189              1056.1092
 Red. masses --      4.4950                 2.6314                 2.9918
 Frc consts  --      2.8938                 1.7143                 1.9661
 IR Inten    --     74.0991                 1.2833                54.1677

                     52                     53                     54
                      A                      A                      A
 Frequencies --   1068.5669              1088.1065              1103.5927
 Red. masses --      2.3335                 4.4997                 1.5878
 Frc consts  --      1.5699                 3.1389                 1.1394
 IR Inten    --    296.6794               310.7691                20.4152

                     55                     56                     57
                      A                      A                      A
 Frequencies --   1111.2147              1121.0934              1186.6329
 Red. masses --      1.6727                 3.4349                 1.1029
 Frc consts  --      1.2169                 2.5436                 0.9150
 IR Inten    --     28.6880               195.2621                 1.4323

                     58                     59                     60
                      A                      A                      A
 Frequencies --   1187.5532              1197.2469              1202.9535
 Red. masses --      1.0941                 1.6083                 2.1052
 Frc consts  --      0.9091                 1.3583                 1.7949
 IR Inten    --      0.2759               108.5052               191.4510

                     61                     62                     63
                      A                      A                      A
 Frequencies --   1204.2660              1236.3416              1247.7956
 Red. masses --      1.4781                 4.6158                 5.2196
 Frc consts  --      1.2630                 4.1569                 4.7882
 IR Inten    --     79.6843                49.9728                 9.4321

                     64                     65                     66
                      A                      A                      A
 Frequencies --   1281.6028              1335.5146              1338.6712
 Red. masses --      2.8757                 2.1301                 2.0532
 Frc consts  --      2.7829                 2.2384                 2.1678
 IR Inten    --    248.3075                90.1665                70.7168

                     67                     68                     69
                      A                      A                      A
 Frequencies --   1359.5092              1366.8059              1378.7289
 Red. masses --      5.0047                 2.6270                 3.4335
 Frc consts  --      5.4500                 2.8915                 3.8455
 IR Inten    --      2.5421                 1.0625               401.9133

                     70                     71                     72
                      A                      A                      A
 Frequencies --   1454.7556              1487.8531              1512.2562
 Red. masses --      4.4535                 2.1527                 2.5182
 Frc consts  --      5.5531                 2.8077                 3.3930
 IR Inten    --    206.8695                18.5959                22.0648

                     73                     74                     75
                      A                      A                      A
 Frequencies --   1523.8939              1546.6763              1582.7876
 Red. masses --      2.0954                 2.7028                 6.4562
 Frc consts  --      2.8670                 3.8095                 9.5295
 IR Inten    --      6.4076               401.1561               388.5410

                     76                     77                     78
                      A                      A                      A
 Frequencies --   1642.6348              1644.3047              1651.9626
 Red. masses --      5.8322                 5.5764                 6.3339
 Frc consts  --      9.2717                 8.8831                10.1841
 IR Inten    --      0.2791                 0.0876                 5.9431

                     79                     80                     81
                      A                      A                      A
 Frequencies --   1658.9055              3205.0152              3210.9689
 Red. masses --      5.6940                 1.0860                 1.0861
 Frc consts  --      9.2324                 6.5727                 6.5975
 IR Inten    --     43.5664                 1.4302                 0.7316

                     82                     83                     84
                      A                      A                      A
 Frequencies --   3213.2538              3218.7057              3222.6984
 Red. masses --      1.0890                 1.0900                 1.0927
 Frc consts  --      6.6248                 6.6536                 6.6865
 IR Inten    --     17.7436                21.7568                33.4899

                     85                     86                     87
                      A                      A                      A
 Frequencies --   3229.9192              3230.9250              3239.0869
 Red. masses --      1.0941                 1.0964                 1.0951
 Frc consts  --      6.7248                 6.7431                 6.7693
 IR Inten    --     46.7566                30.5818                11.8436

                     88                     89                     90
                      A                      A                      A
 Frequencies --   3245.6788              3256.5852              3334.5925
 Red. masses --      1.0921                 1.0927                 1.0982
 Frc consts  --      6.7782                 6.8279                 7.1945
 IR Inten    --      8.0446                 2.7619                 5.9330

 - Thermochemistry -
 -------------------
 Temperature   298.150 Kelvin.  Pressure   1.00000 Atm.
 Atom     1 has atomic number  8 and mass  15.99491

 Molecular mass:   299.06027 amu.
 Principal axes and moments of inertia in atomic units:
                           1         2         3
     Eigenvalues --  2913.62356********************
           X            0.99462   0.09337   0.04485
           Y           -0.05832   0.86260  -0.50251
           Z           -0.08561   0.49719   0.86341
 This molecule is an asymmetric top.
 Rotational symmetry number  1.
 Warning -- assumption of classical behavior for rotation
           may cause significant error
 Rotational temperatures (Kelvin)      0.02973     0.00662     0.00596
 Rotational constants (GHZ):           0.61941     0.13786     0.12422
 Zero-point vibrational energy     617723.2 (Joules/Mol)
                                  147.63939 (Kcal/Mol)
 Warning -- explicit consideration of  24 degrees of freedom as
           vibrations may cause significant error
 Vibrational temperatures:     21.09    30.23    45.23    79.72   114.75
          (Kelvin)            122.83   178.64   215.85   261.12   333.21
                              367.90   401.96   438.01   470.34   536.18
                              565.51   595.39   602.34   636.26   666.51
                              712.21   763.40   788.67   845.47   902.82
                              904.37   963.22   997.08  1000.95  1010.05
                             1014.71  1019.82  1064.60  1081.11  1097.02
                             1118.25  1228.19  1238.74  1338.04  1339.96
                             1346.85  1411.36  1414.85  1436.83  1448.90
                             1453.49  1459.69  1464.93  1503.96  1512.90
                             1519.51  1537.43  1565.54  1587.82  1598.79
                             1613.00  1707.30  1708.62  1722.57  1730.78
                             1732.67  1778.82  1795.30  1843.94  1921.51
                             1926.05  1956.03  1966.53  1983.68  2093.07
                             2140.69  2175.80  2192.54  2225.32  2277.28
                             2363.39  2365.79  2376.81  2386.79  4611.30
                             4619.87  4623.16  4631.00  4636.74  4647.13
                             4648.58  4660.32  4669.81  4685.50  4797.73

 Zero-point correction=                           0.235278 (Hartree/Particle)
 Thermal correction to Energy=                    0.252165
 Thermal correction to Enthalpy=                  0.253109
 Thermal correction to Gibbs Free Energy=         0.187059
 Sum of electronic and zero-point Energies=          -1307.562745
 Sum of electronic and thermal Energies=             -1307.545858
 Sum of electronic and thermal Enthalpies=           -1307.544914
 Sum of electronic and thermal Free Energies=        -1307.610964

                     E (Thermal)             CV                S
                      KCal/Mol        Cal/Mol-Kelvin    Cal/Mol-Kelvin
 Total                  158.236             65.434            139.013
 Electronic               0.000              0.000              0.000
 Translational            0.889              2.981             42.983
 Rotational               0.889              2.981             34.671
 Vibrational            156.458             59.472             61.359
 Vibration     1          0.593              1.986              7.251
 Vibration     2          0.593              1.986              6.536
 Vibration     3          0.594              1.983              5.737
 Vibration     4          0.596              1.975              4.614
 Vibration     5          0.600              1.963              3.897
 Vibration     6          0.601              1.959              3.763
 Vibration     7          0.610              1.929              3.035
 Vibration     8          0.618              1.903              2.672
 Vibration     9          0.630              1.865              2.313
 Vibration    10          0.653              1.793              1.867
 Vibration    11          0.666              1.753              1.691
 Vibration    12          0.680              1.712              1.537
 Vibration    13          0.695              1.665              1.392
 Vibration    14          0.711              1.622              1.275
 Vibration    15          0.744              1.528              1.069
 Vibration    16          0.760              1.485              0.989
 Vibration    17          0.777              1.440              0.913
 Vibration    18          0.782              1.430              0.897
 Vibration    19          0.802              1.378              0.820
 Vibration    20          0.821              1.332              0.757
 Vibration    21          0.851              1.261              0.671
 Vibration    22          0.886              1.182              0.586
 Vibration    23          0.903              1.144              0.548
 Vibration    24          0.945              1.058              0.471

 Optimization completed.
    -- Stationary point found.
 Normal termination of Gaussian 16 at Thu Sep 24 15:32:45 2020.

 ----------------------------------------------------------------------
 #p b3lyp/6-31G(d) scrf=(iefpcm,read,solvent=water) geom=allcheck guess
 =read
 ----------------------------------------------------------------------

 Structure from the checkpoint file:  "SM45_m1.a.6.pdb.xyz.mst.a.w.chk"
 -------------------
 SM45_m1.a.6.pdb.xyz
 -------------------
 Charge = -1 Multiplicity = 1

 SCF Done:  E(RB3LYP) =  -1307.79802216     A.U. after    7 cycles
 Normal termination of Gaussian 16 at Thu Sep 24 15:33:26 2020.

 -----------------------------
 #p B3LYP/6-31G* geom=allcheck
 -----------------------------

 Structure from the checkpoint file:  "SM45_m1.a.6.pdb.xyz.mst.a.w.chk"
 -------------------
 SM45_m1.a.6.pdb.xyz
 -------------------
 Charge = -1 Multiplicity = 1

 SCF Done:  E(RB3LYP) =  -1307.69407028     A.U. after   15 cycles

 The electronic state is 1-A.
 Alpha  occ. eigenvalues --  -88.92930 -18.95334 -18.95088 -14.30649 -14.25757
 Alpha  occ. eigenvalues --  -14.21193 -14.14619 -10.15225 -10.11838 -10.11641
 Alpha  occ. eigenvalues --  -10.11359 -10.11351 -10.10881 -10.10523 -10.08544
 Alpha  occ. eigenvalues --  -10.08505 -10.08313 -10.08179 -10.08063 -10.07830
 Alpha  occ. eigenvalues --  -10.07344  -7.95289  -5.91754  -5.91711  -5.91673
 Alpha  occ. eigenvalues --   -0.96597  -0.91591  -0.80969  -0.79948  -0.76160
 Alpha  occ. eigenvalues --   -0.74133  -0.73352  -0.67376  -0.66427  -0.64581
 Alpha  occ. eigenvalues --   -0.63365  -0.63329  -0.54959  -0.53787  -0.51580
 Alpha  occ. eigenvalues --   -0.49262  -0.48191  -0.47984  -0.45443  -0.43002
 Alpha  occ. eigenvalues --   -0.41193  -0.38870  -0.37393  -0.36992  -0.35624
 Alpha  occ. eigenvalues --   -0.34790  -0.34123  -0.33711  -0.33120  -0.32464
 Alpha  occ. eigenvalues --   -0.31082  -0.30192  -0.28666  -0.28455  -0.27221
 Alpha  occ. eigenvalues --   -0.26902  -0.25282  -0.24980  -0.23265  -0.21198
 Alpha  occ. eigenvalues --   -0.20996  -0.17677  -0.16862  -0.16207  -0.15347
 Alpha  occ. eigenvalues --   -0.14635  -0.14077  -0.13915  -0.13071  -0.11797
 Alpha  occ. eigenvalues --   -0.11433  -0.08929  -0.04927
 Alpha virt. eigenvalues --    0.06782   0.07456   0.10325   0.11271   0.14007
 Alpha virt. eigenvalues --    0.16478   0.19292   0.20473   0.20957   0.22626
 Alpha virt. eigenvalues --    0.24010   0.24524   0.24631   0.25154   0.25679

 Mulliken charges:
               1
     1  O   -0.598494
     2  S    1.143360
     3  N   -0.696203
     4  C    0.429400
     5  N   -0.353792
     6  N   -0.120005
     7  C   -0.043542
     8  N   -0.357839
     9  C    0.338428
    10  C   -0.150005
    11  C   -0.143578
    12  C   -0.128971
    13  C   -0.143985
    14  C   -0.167754
    15  C   -0.129666
    16  C   -0.138580
    17  C   -0.132087
    18  C   -0.130541
    19  C   -0.128982
    20  C   -0.133970
    21  O   -0.605591
    22  H    0.134749
    23  H    0.166714
    24  H    0.115725
    25  H    0.106048
    26  H    0.114531
    27  H    0.141724
    28  H    0.151208
    29  H    0.099040
    30  H    0.094251
    31  H    0.101740
    32  H    0.166670
 Sum of Mulliken charges =  -1.00000

 Dipole moment (field-independent basis, Debye):
    X=             -8.7214    Y=              6.5614    Z=              2.8561  Tot=             11.2815
 Quadrupole moment (field-independent basis, Debye-Ang):
   XX=           -160.6899   YY=           -144.2114   ZZ=           -135.3513
   XY=             22.4290   XZ=             -1.2608   YZ=             -3.1849

 Normal termination of Gaussian 16 at Thu Sep 24 15:34:12 2020.
 Gaussian 16:  ES64L-G16RevB.01 20-Dec-2017

 ----------------------------------------------------------------------
 #p mp2/aug-cc-pVDZ scf=(MaxCycle=2000,NoVarAcc,NoIncFock) maxdisk=120G
 B geom=allcheck
 ----------------------------------------------------------------------

 Structure from the checkpoint file:  "SM45_m1.a.6.pdb.xyz.mst.a.w.chk"
 -------------------
 SM45_m1.a.6.pdb.xyz
 -------------------
 Charge = -1 Multiplicity = 1

                         Standard orientation:
 ---------------------------------------------------------------------
 Center     Atomic      Atomic             Coordinates (Angstroms)
 Number     Number       Type             X           Y           Z
 ---------------------------------------------------------------------
      1          8           0        3.400254   -2.349658    0.557422
      2         16           0        2.450102   -1.480145   -0.185682
      3          7           0        1.029548   -1.661994    0.524564
      4          6           0       -0.072579   -0.967431    0.072478
      5          7           0       -0.125178   -0.042924   -0.946658
      6          7           0       -1.352459    0.417644   -1.061772
      7          6           0       -1.354652   -1.066979    0.601109
      8          7           0       -2.105319   -0.194191   -0.127672
      9          6           0       -3.491863    0.094709   -0.008507
     10          6           0       -3.992894    1.295194   -0.521796
     11          6           0       -5.352751    1.572975   -0.403501
     12          6           0       -6.208978    0.670290    0.232063
     13          6           0       -5.697084   -0.523031    0.744753
     14          6           0       -4.340063   -0.819966    0.622217
     15          6           0        3.025015    0.208742    0.085577
     16          6           0        3.228380    0.657533    1.393782
     17          6           0        3.680366    1.958767    1.608675
     18          6           0        3.927366    2.803684    0.522504
     19          6           0        3.722077    2.347774   -0.780416
     20          6           0        3.267994    1.045695   -1.002204
     21          8           0        2.454240   -1.671698   -1.663248
     22          1           0       -1.753004   -1.643906    1.417043
     23          1           0       -3.317436    1.991778   -1.000673
     24          1           0       -5.740956    2.504030   -0.802026
     25          1           0       -7.265448    0.895503    0.326852
     26          1           0       -6.353577   -1.233331    1.235480
     27          1           0       -3.947816   -1.755817    1.001625
     28          1           0        3.036439   -0.002565    2.232387
     29          1           0        3.841328    2.313081    2.621326
     30          1           0        4.279174    3.815529    0.693811
     31          1           0        3.913952    3.002543   -1.624056
     32          1           0        3.101607    0.668837   -2.003878
 ---------------------------------------------------------------------

 SCF Done:  E(RHF) =  -1301.61142198     A.U. after   17 cycles
