 Gaussian 16, Revision B.01,

 ----------------------------------------------------------------------
 #p b3lyp/6-31G(d) opt freq NoSymm scf=(MaxCycle=2000,NoVarAcc,NoIncFoc
 k) scrf=(iefpcm,read,solvent=water)
 ----------------------------------------------------------------------

 -------------------
 SM45_m0.n.3.pdb.xyz
 -------------------
 Symbolic Z-matrix:
 Charge =  0 Multiplicity = 1

 SCF Done:  E(RB3LYP) =  -1308.27187410     A.U. after   13 cycles
 SCF Done:  E(RB3LYP) =  -1308.27192915     A.U. after    9 cycles
 SCF Done:  E(RB3LYP) =  -1308.27193745     A.U. after    8 cycles
 SCF Done:  E(RB3LYP) =  -1308.27194269     A.U. after    8 cycles
 SCF Done:  E(RB3LYP) =  -1308.27194680     A.U. after    8 cycles
 SCF Done:  E(RB3LYP) =  -1308.27195286     A.U. after    8 cycles
 SCF Done:  E(RB3LYP) =  -1308.27195721     A.U. after    8 cycles
 SCF Done:  E(RB3LYP) =  -1308.27196289     A.U. after    8 cycles
 SCF Done:  E(RB3LYP) =  -1308.27196918     A.U. after    8 cycles
 SCF Done:  E(RB3LYP) =  -1308.27197208     A.U. after    7 cycles
 SCF Done:  E(RB3LYP) =  -1308.27197225     A.U. after    6 cycles
 Optimization completed.
    -- Stationary point found.
 Normal termination of Gaussian 16 at Wed Sep 23 06:15:18 2020.

 --------------------------------------------------------------------
 #P Geom=AllCheck Guess=TCheck SCRF=Check GenChk RB3LYP/6-31G(d) Freq
 --------------------------------------------------------------------

 Structure from the checkpoint file:  "SM45_m0.n.3.pdb.xyz.mst.n.w.chk"
 -------------------
 SM45_m0.n.3.pdb.xyz
 -------------------
 Charge =  0 Multiplicity = 1

 SCF Done:  E(RB3LYP) =  -1308.27197225     A.U. after    1 cycles

  Exact polarizability: 284.353  43.399 249.095  47.155 -30.031 234.320
 Approx polarizability: 310.483  51.836 291.665  63.619 -44.146 296.010

                      1                      2                      3
                      A                      A                      A
 Frequencies --     18.1622                20.3764                31.6612
 Red. masses --      5.8637                 5.4149                 3.7651
 Frc consts  --      0.0011                 0.0013                 0.0022
 IR Inten    --      0.8603                 1.5062                 0.1087

                      4                      5                      6
                      A                      A                      A
 Frequencies --     44.7565                76.8734                86.7395
 Red. masses --      5.5094                 6.3748                 5.4248
 Frc consts  --      0.0065                 0.0222                 0.0240
 IR Inten    --      2.4166                 1.0208                13.5132

                      7                      8                      9
                      A                      A                      A
 Frequencies --    116.5535               133.0532               171.0971
 Red. masses --      6.8678                 5.8987                 6.1799
 Frc consts  --      0.0550                 0.0615                 0.1066
 IR Inten    --      2.5483                 2.2427                 3.0822

                     10                     11                     12
                      A                      A                      A
 Frequencies --    227.9618               258.1783               283.0139
 Red. masses --      5.3696                 7.3533                 9.1504
 Frc consts  --      0.1644                 0.2888                 0.4318
 IR Inten    --      0.1236                 2.2639                 1.3780

                     13                     14                     15
                      A                      A                      A
 Frequencies --    298.8493               303.9209               374.4126
 Red. masses --      4.9800                 8.7976                 7.7590
 Frc consts  --      0.2620                 0.4788                 0.6409
 IR Inten    --      3.6407                 6.6845                 0.4058

                     16                     17                     18
                      A                      A                      A
 Frequencies --    410.3420               413.2427               418.8569
 Red. masses --      4.6892                 3.0332                 5.7866
 Frc consts  --      0.4652                 0.3052                 0.5981
 IR Inten    --     18.4856                 0.4489                 5.3660

                     19                     20                     21
                      A                      A                      A
 Frequencies --    420.5793               442.3962               487.2767
 Red. masses --      3.4294                 5.3187                 3.3946
 Frc consts  --      0.3574                 0.6133                 0.4749
 IR Inten    --      1.1999                10.3912                12.1427

                     22                     23                     24
                      A                      A                      A
 Frequencies --    525.4581               539.3142               542.0549
 Red. masses --      2.7071                 6.2470                 4.6742
 Frc consts  --      0.4404                 1.0705                 0.8092
 IR Inten    --     50.3834                94.3300                64.8337

                     25                     26                     27
                      A                      A                      A
 Frequencies --    597.2236               624.8549               627.4353
 Red. masses --      6.5552                 6.4413                 6.4032
 Frc consts  --      1.3776                 1.4818                 1.4852
 IR Inten    --    420.2999                 0.0243                 1.0145

                     28                     29                     30
                      A                      A                      A
 Frequencies --    667.4072               695.7737               697.4519
 Red. masses --      3.5286                 2.5786                 5.9432
 Frc consts  --      0.9260                 0.7355                 1.7033
 IR Inten    --      8.8117                27.5099                28.9804

                     31                     32                     33
                      A                      A                      A
 Frequencies --    705.4496               720.2546               723.9099
 Red. masses --      2.3026                 7.8473                 6.4561
 Frc consts  --      0.6751                 2.3985                 1.9934
 IR Inten    --     31.5960                23.6138               108.1086

                     34                     35                     36
                      A                      A                      A
 Frequencies --    765.3579               778.4500               793.3598
 Red. masses --      1.4641                 1.6230                 1.8422
 Frc consts  --      0.5053                 0.5795                 0.6832
 IR Inten    --     27.4284                84.1275                22.4881

                     37                     38                     39
                      A                      A                      A
 Frequencies --    823.3038               852.5923               854.5352
 Red. masses --      3.1326                 2.6712                 1.3011
 Frc consts  --      1.2511                 1.1440                 0.5598
 IR Inten    --      2.6407                93.6894                 4.7141

                     40                     41                     42
                      A                      A                      A
 Frequencies --    860.4334               936.4984               948.7486
 Red. masses --      1.2577                 1.3883                 1.3149
 Frc consts  --      0.5486                 0.7174                 0.6973
 IR Inten    --      1.4037                 5.9407                 0.3231

                     43                     44                     45
                      A                      A                      A
 Frequencies --    982.7084               988.3227              1005.4450
 Red. masses --      1.3438                 1.3569                 7.6987
 Frc consts  --      0.7646                 0.7809                 4.5855
 IR Inten    --      0.2937                 0.0581                28.8128

                     46                     47                     48
                      A                      A                      A
 Frequencies --   1010.8837              1013.2614              1020.0560
 Red. masses --      1.2705                 6.4163                 6.0862
 Frc consts  --      0.7650                 3.8813                 3.7312
 IR Inten    --      0.2692                 6.5993                 0.2278

                     49                     50                     51
                      A                      A                      A
 Frequencies --   1020.8800              1045.5236              1045.6805
 Red. masses --      1.2888                 3.2106                 3.1984
 Frc consts  --      0.7914                 2.0678                 2.0606
 IR Inten    --      0.3525                14.8721                 2.4831

                     52                     53                     54
                      A                      A                      A
 Frequencies --   1060.3432              1064.9683              1081.5656
 Red. masses --      2.0031                 4.1320                 3.4116
 Frc consts  --      1.3269                 2.7611                 2.3513
 IR Inten    --     60.3865                92.6686                83.5620

                     55                     56                     57
                      A                      A                      A
 Frequencies --   1103.8805              1108.0656              1131.6782
 Red. masses --      1.5312                 1.5444                 6.2361
 Frc consts  --      1.0993                 1.1173                 4.7055
 IR Inten    --     14.2887                11.5509               372.9085

                     58                     59                     60
                      A                      A                      A
 Frequencies --   1188.0122              1191.2628              1196.6821
 Red. masses --      1.1263                 1.1000                 1.1730
 Frc consts  --      0.9366                 0.9197                 0.9897
 IR Inten    --      0.3144                 0.3904                 2.1328

                     61                     62                     63
                      A                      A                      A
 Frequencies --   1198.3384              1225.3560              1232.3570
 Red. masses --      1.1906                 2.3955                 2.7242
 Frc consts  --      1.0073                 2.1192                 2.4376
 IR Inten    --      1.6902                13.3092                 4.5062

                     64                     65                     66
                      A                      A                      A
 Frequencies --   1290.1927              1304.7833              1337.2298
 Red. masses --      6.2313                12.9645                 1.4548
 Frc consts  --      6.1113                13.0042                 1.5327
 IR Inten    --    185.0907               187.3354                 1.7197

                     67                     68                     69
                      A                      A                      A
 Frequencies --   1344.0259              1361.9256              1364.8052
 Red. masses --      2.4416                 5.9842                 2.5590
 Frc consts  --      2.5986                 6.5398                 2.8084
 IR Inten    --     65.9376                 3.1034                 2.2931

                     70                     71                     72
                      A                      A                      A
 Frequencies --   1381.4455              1422.3038              1483.0917
 Red. masses --      3.1845                 2.1491                 2.6634
 Frc consts  --      3.5806                 2.5615                 3.4517
 IR Inten    --    110.6531                22.7272                21.9826

                     73                     74                     75
                      A                      A                      A
 Frequencies --   1491.4744              1513.0315              1518.8839
 Red. masses --      2.1776                 2.5849                 2.0798
 Frc consts  --      2.8540                 3.4864                 2.8270
 IR Inten    --     29.3084                14.4591                 3.8397

                     76                     77                     78
                      A                      A                      A
 Frequencies --   1549.2626              1589.1913              1639.6297
 Red. masses --      2.7533                 6.3715                 5.5384
 Frc consts  --      3.8937                 9.4807                 8.7726
 IR Inten    --    124.9808                78.0240                 4.8043

                     79                     80                     81
                      A                      A                      A
 Frequencies --   1642.9863              1654.3518              1657.1521
 Red. masses --      5.8776                 6.4318                 5.6895
 Frc consts  --      9.3480                10.3714                 9.2055
 IR Inten    --      0.1307                 9.4602                22.6669

                     82                     83                     84
                      A                      A                      A
 Frequencies --   3214.3226              3215.7868              3223.5670
 Red. masses --      1.0863                 1.0866                 1.0897
 Frc consts  --      6.6126                 6.6208                 6.6719
 IR Inten    --      0.1583                 0.7928                16.9694

                     85                     86                     87
                      A                      A                      A
 Frequencies --   3225.2670              3231.9836              3233.8499
 Red. masses --      1.0900                 1.0937                 1.0940
 Frc consts  --      6.6802                 6.7314                 6.7409
 IR Inten    --     17.0555                41.1791                22.8513

                     88                     89                     90
                      A                      A                      A
 Frequencies --   3241.4328              3243.7109              3251.0757
 Red. masses --      1.0956                 1.0948                 1.0935
 Frc consts  --      6.7824                 6.7872                 6.8094
 IR Inten    --     12.8972                11.0680                 4.3869

                     91                     92                     93
                      A                      A                      A
 Frequencies --   3253.0599              3337.6842              3501.1800
 Red. masses --      1.0936                 1.1005                 1.0761
 Frc consts  --      6.8188                 7.2231                 7.7717
 IR Inten    --      2.7873                 8.0118               150.0902

 - Thermochemistry -
 -------------------
 Temperature   298.150 Kelvin.  Pressure   1.00000 Atm.
 Atom     1 has atomic number  8 and mass  15.99491

 Molecular mass:   300.06810 amu.
 Principal axes and moments of inertia in atomic units:
                           1         2         3
     Eigenvalues --  3566.49367********************
           X            0.99995  -0.00462   0.00886
           Y            0.00473   0.99992  -0.01205
           Z           -0.00881   0.01209   0.99989
 This molecule is an asymmetric top.
 Rotational symmetry number  1.
 Warning -- assumption of classical behavior for rotation
           may cause significant error
 Rotational temperatures (Kelvin)      0.02429     0.00784     0.00668
 Rotational constants (GHZ):           0.50603     0.16337     0.13918
 Zero-point vibrational energy     651678.5 (Joules/Mol)
                                  155.75489 (Kcal/Mol)
 Warning -- explicit consideration of  25 degrees of freedom as
           vibrations may cause significant error
 Vibrational temperatures:     26.13    29.32    45.55    64.39   110.60
          (Kelvin)            124.80   167.69   191.43   246.17   327.99
                              371.46   407.19   429.98   437.27   538.70
                              590.39   594.56   602.64   605.12   636.51
                              701.08   756.02   775.95   779.90   859.27
                              899.03   902.74   960.25  1001.06  1003.48
                             1014.98  1036.29  1041.54  1101.18  1120.02
                             1141.47  1184.55  1226.69  1229.49  1237.97
                             1347.41  1365.04  1413.90  1421.98  1446.61
                             1454.44  1457.86  1467.63  1468.82  1504.28
                             1504.50  1525.60  1532.25  1556.13  1588.24
                             1594.26  1628.23  1709.28  1713.96  1721.76
                             1724.14  1763.01  1773.09  1856.30  1877.29
                             1923.98  1933.75  1959.51  1963.65  1987.59
                             2046.38  2133.84  2145.90  2176.91  2185.34
                             2229.04  2286.49  2359.06  2363.89  2380.24
                             2384.27  4624.69  4626.80  4637.99  4640.44
                             4650.10  4652.79  4663.70  4666.98  4677.57
                             4680.43  4802.18  5037.42

 Zero-point correction=                           0.248211 (Hartree/Particle)
 Thermal correction to Energy=                    0.265391
 Thermal correction to Enthalpy=                  0.266335
 Thermal correction to Gibbs Free Energy=         0.199737
 Sum of electronic and zero-point Energies=          -1308.023761
 Sum of electronic and thermal Energies=             -1308.006581
 Sum of electronic and thermal Enthalpies=           -1308.005637
 Sum of electronic and thermal Free Energies=        -1308.072235

                     E (Thermal)             CV                S
                      KCal/Mol        Cal/Mol-Kelvin    Cal/Mol-Kelvin
 Total                  166.535             66.580            140.167
 Electronic               0.000              0.000              0.000
 Translational            0.889              2.981             42.993
 Rotational               0.889              2.981             34.590
 Vibrational            164.758             60.618             62.584
 Vibration     1          0.593              1.986              6.826
 Vibration     2          0.593              1.986              6.597
 Vibration     3          0.594              1.983              5.723
 Vibration     4          0.595              1.979              5.037
 Vibration     5          0.599              1.965              3.969
 Vibration     6          0.601              1.958              3.732
 Vibration     7          0.608              1.936              3.157
 Vibration     8          0.613              1.920              2.901
 Vibration     9          0.626              1.878              2.423
 Vibration    10          0.651              1.798              1.895
 Vibration    11          0.667              1.749              1.674
 Vibration    12          0.682              1.705              1.515
 Vibration    13          0.692              1.676              1.423
 Vibration    14          0.695              1.666              1.395
 Vibration    15          0.746              1.525              1.062
 Vibration    16          0.775              1.448              0.925
 Vibration    17          0.777              1.441              0.915
 Vibration    18          0.782              1.429              0.896
 Vibration    19          0.783              1.426              0.890
 Vibration    20          0.802              1.378              0.819
 Vibration    21          0.843              1.278              0.691
 Vibration    22          0.880              1.194              0.597
 Vibration    23          0.894              1.163              0.567
 Vibration    24          0.897              1.157              0.561
 Vibration    25          0.955              1.038              0.454

                           ! Non-Optimized Parameters !
 Normal termination of Gaussian 16 at Wed Sep 23 06:26:39 2020.

 ----------------------------------------------------------------------
 #p b3lyp/6-31G(d) scrf=(iefpcm,read,solvent=water) geom=allcheck guess
 =read
 ----------------------------------------------------------------------

 Structure from the checkpoint file:  "SM45_m0.n.3.pdb.xyz.mst.n.w.chk"
 -------------------
 SM45_m0.n.3.pdb.xyz
 -------------------
 Charge =  0 Multiplicity = 1

 SCF Done:  E(RB3LYP) =  -1308.27197793     A.U. after    5 cycles
 Normal termination of Gaussian 16 at Wed Sep 23 06:27:09 2020.

 -----------------------------
 #p B3LYP/6-31G* geom=allcheck
 -----------------------------

 Structure from the checkpoint file:  "SM45_m0.n.3.pdb.xyz.mst.n.w.chk"
 -------------------
 SM45_m0.n.3.pdb.xyz
 -------------------
 Charge =  0 Multiplicity = 1

 SCF Done:  E(RB3LYP) =  -1308.23930623     A.U. after   15 cycles
 Normal termination of Gaussian 16 at Wed Sep 23 06:27:57 2020.
 Gaussian 16:  ES64L-G16RevB.01 20-Dec-2017

 ----------------------------------------------------------------------
 #p mp2/aug-cc-pVDZ scf=(MaxCycle=2000,NoVarAcc,NoIncFock) maxdisk=120G
 B geom=allcheck
 ----------------------------------------------------------------------

 Structure from the checkpoint file:  "SM45_m0.n.3.pdb.xyz.mst.n.w.chk"
 -------------------
 SM45_m0.n.3.pdb.xyz
 -------------------
 Charge =  0 Multiplicity = 1

                         Standard orientation:
 ---------------------------------------------------------------------
 Center     Atomic      Atomic             Coordinates (Angstroms)
 Number     Number       Type             X           Y           Z
 ---------------------------------------------------------------------
      1          8           0       -3.935496   -1.532904   -0.796075
      2         16           0       -2.757126   -1.166538   -0.000404
      3          7           0       -1.436025   -1.662607   -0.955346
      4          6           0       -0.124593   -1.457712   -0.484064
      5          7           0        0.439292   -2.282548    0.442527
      6          7           0        1.662259   -1.885763    0.670009
      7          6           0        0.801606   -0.502771   -0.851440
      8          7           0        1.900862   -0.809541   -0.120471
      9          6           0        3.171371   -0.162373   -0.107185
     10          6           0        3.609650    0.518685   -1.244331
     11          6           0        4.847368    1.159346   -1.217425
     12          6           0        5.644110    1.107362   -0.072134
     13          6           0        5.196721    0.413818    1.054972
     14          6           0        3.955069   -0.219736    1.047840
     15          6           0       -2.700828    0.611644    0.148838
     16          6           0       -3.269644    1.396621   -0.857141
     17          6           0       -3.200397    2.784077   -0.743715
     18          6           0       -2.568516    3.366609    0.358739
     19          6           0       -2.005320    2.567746    1.356007
     20          6           0       -2.066715    1.177868    1.256271
     21          8           0       -2.547585   -1.741431    1.332405
     22          1           0       -1.576844   -1.358832   -1.920758
     23          1           0        0.755898    0.329200   -1.532747
     24          1           0        2.999778    0.537449   -2.139568
     25          1           0        5.190087    1.690296   -2.098363
     26          1           0        6.608041    1.603802   -0.057898
     27          1           0        5.809559    0.372626    1.948661
     28          1           0        3.588603   -0.748076    1.918352
     29          1           0       -3.766122    0.930234   -1.699286
     30          1           0       -3.643228    3.408088   -1.511808
     31          1           0       -2.519340    4.446763    0.442126
     32          1           0       -1.522235    3.023365    2.213053
     33          1           0       -1.649541    0.540496    2.025642
 ---------------------------------------------------------------------

 SCF Done:  E(RHF) =  -1302.15849279     A.U. after   17 cycles
 E2 =    -0.3135052716D+01 EUMP2 =    -0.13052935455033D+04

 The electronic state is 1-A.
 Alpha  occ. eigenvalues --  -92.22816 -20.55954 -20.55663 -15.68980 -15.66320
 Alpha  occ. eigenvalues --  -15.63094 -15.62083 -11.32068 -11.31923 -11.31014
 Alpha  occ. eigenvalues --  -11.29547 -11.28265 -11.28026 -11.27844 -11.27255
 Alpha  occ. eigenvalues --  -11.27248 -11.27121 -11.26977 -11.26782 -11.26571
 Alpha  occ. eigenvalues --  -11.26353  -9.19592  -6.88127  -6.88075  -6.87984
 Alpha  occ. eigenvalues --   -1.46205  -1.45564  -1.33776  -1.27283  -1.23890
 Alpha  occ. eigenvalues --   -1.19133  -1.16984  -1.09153  -1.06539  -1.05248
 Alpha  occ. eigenvalues --   -1.04725  -1.04088  -0.92525  -0.90768  -0.87673
 Alpha  occ. eigenvalues --   -0.86341  -0.84337  -0.83077  -0.80789  -0.77203
 Alpha  occ. eigenvalues --   -0.75081  -0.72032  -0.71148  -0.69031  -0.68148
 Alpha  occ. eigenvalues --   -0.67034  -0.66799  -0.66371  -0.64667  -0.63773
 Alpha  occ. eigenvalues --   -0.62679  -0.62278  -0.61923  -0.61584  -0.55504
 Alpha  occ. eigenvalues --   -0.54620  -0.54098  -0.53793  -0.53539  -0.52951
 Alpha  occ. eigenvalues --   -0.52345  -0.50563  -0.49568  -0.49278  -0.46980
 Alpha  occ. eigenvalues --   -0.46583  -0.44866  -0.43975  -0.37615  -0.37192
 Alpha  occ. eigenvalues --   -0.36563  -0.36349  -0.33505
 Alpha virt. eigenvalues --    0.01913   0.02810   0.02894   0.03766   0.03847
 Alpha virt. eigenvalues --    0.04932   0.04998   0.05672   0.06325   0.06423
 Alpha virt. eigenvalues --    0.06683   0.07606   0.07721   0.07734   0.08365

 Mulliken charges:
               1
     1  O   -1.145879
     2  S    2.836285
     3  N   -0.918974
     4  C    1.229467
     5  N   -0.640080
     6  N   -0.454688
     7  C    0.825538
     8  N   -0.649159
     9  C    0.825640
    10  C    0.116658
    11  C    0.730074
    12  C    0.626277
    13  C    0.580452
    14  C    0.545699
    15  C    0.784445
    16  C    0.061431
    17  C    0.497726
    18  C    0.502635
    19  C    0.441911
    20  C    0.225226
    21  O   -1.189521
    22  H   -0.041204
    23  H   -0.591521
    24  H   -0.680757
    25  H   -0.445353
    26  H   -0.446350
    27  H   -0.431371
    28  H   -0.545468
    29  H   -0.600481
    30  H   -0.456726
    31  H   -0.446110
    32  H   -0.482906
    33  H   -0.662918
 Sum of Mulliken charges =  -0.00000

 Dipole moment (field-independent basis, Debye):
    X=              5.0010    Y=              8.8765    Z=             -3.4816  Tot=             10.7668
 Quadrupole moment (field-independent basis, Debye-Ang):
   XX=           -131.2353   YY=           -138.0556   ZZ=           -120.2947
   XY=            -11.4438   XZ=              4.9696   YZ=              3.5339

 Normal termination of Gaussian 16 at Wed Sep 23 07:12:04 2020.
