 Gaussian 16, Revision B.01,

 ----------------------------------------------------------------------
 #p b3lyp/6-31G(d) opt freq NoSymm scf=(MaxCycle=2000,NoVarAcc,NoIncFoc
 k) scrf=(iefpcm,read,solvent=water)
 ----------------------------------------------------------------------

 -------------------
 SM45_m1.a.4.pdb.xyz
 -------------------
 Symbolic Z-matrix:
 Charge = -1 Multiplicity = 1

 SCF Done:  E(RB3LYP) =  -1307.79822795     A.U. after   13 cycles
 SCF Done:  E(RB3LYP) =  -1307.79815159     A.U. after   10 cycles
 SCF Done:  E(RB3LYP) =  -1307.79803541     A.U. after   10 cycles
 SCF Done:  E(RB3LYP) =  -1307.79822431     A.U. after   10 cycles
 SCF Done:  E(RB3LYP) =  -1307.79823093     A.U. after    9 cycles
 SCF Done:  E(RB3LYP) =  -1307.79796207     A.U. after   12 cycles
 SCF Done:  E(RB3LYP) =  -1307.79801750     A.U. after    9 cycles
 SCF Done:  E(RB3LYP) =  -1307.79822158     A.U. after   10 cycles
 SCF Done:  E(RB3LYP) =  -1307.79823077     A.U. after    9 cycles
 SCF Done:  E(RB3LYP) =  -1307.79794512     A.U. after   12 cycles
 SCF Done:  E(RB3LYP) =  -1307.79823077     A.U. after    9 cycles
 SCF Done:  E(RB3LYP) =  -1307.79797834     A.U. after   12 cycles
 SCF Done:  E(RB3LYP) =  -1307.79799159     A.U. after    8 cycles
 SCF Done:  E(RB3LYP) =  -1307.79821810     A.U. after   12 cycles
 SCF Done:  E(RB3LYP) =  -1307.79823080     A.U. after    9 cycles
 SCF Done:  E(RB3LYP) =  -1307.79799059     A.U. after   12 cycles
 Optimization completed.
    -- Stationary point found.
 Normal termination of Gaussian 16 at Thu Sep 24 15:09:03 2020.

 --------------------------------------------------------------------
 #P Geom=AllCheck Guess=TCheck SCRF=Check GenChk RB3LYP/6-31G(d) Freq
 --------------------------------------------------------------------

 Structure from the checkpoint file:  "SM45_m1.a.4.pdb.xyz.mst.a.w.chk"
 -------------------
 SM45_m1.a.4.pdb.xyz
 -------------------
 Charge = -1 Multiplicity = 1

 SCF Done:  E(RB3LYP) =  -1307.79799059     A.U. after    1 cycles

  Exact polarizability: 331.793  -3.460 258.963  17.924  38.802 216.149
 Approx polarizability: 343.702  -4.038 318.927  19.876  61.826 265.841

                      1                      2                      3
                      A                      A                      A
 Frequencies --     15.8491                25.7304                38.0555
 Red. masses --      5.9195                 3.9850                 4.3486
 Frc consts  --      0.0009                 0.0016                 0.0037
 IR Inten    --      5.0675                 1.3233                 1.4117

                      4                      5                      6
                      A                      A                      A
 Frequencies --     59.7720                78.7079                86.9108
 Red. masses --      6.9213                 5.2191                 7.3484
 Frc consts  --      0.0146                 0.0190                 0.0327
 IR Inten    --      3.3750                 7.2666                 1.6689

                      7                      8                      9
                      A                      A                      A
 Frequencies --    124.9694               150.5704               184.4277
 Red. masses --      7.6505                 7.0326                 6.5988
 Frc consts  --      0.0704                 0.0939                 0.1322
 IR Inten    --      3.4521                 0.8192                 2.6829

                     10                     11                     12
                      A                      A                      A
 Frequencies --    224.9389               265.7321               286.6019
 Red. masses --      5.3303                 7.6786                 6.6814
 Frc consts  --      0.1589                 0.3195                 0.3234
 IR Inten    --      2.2692                13.4649                10.9778

                     13                     14                     15
                      A                      A                      A
 Frequencies --    303.6058               313.2768               373.1368
 Red. masses --      7.7347                 9.4284                 8.0025
 Frc consts  --      0.4201                 0.5452                 0.6565
 IR Inten    --      4.2378                 3.3463                 1.6258

                     16                     17                     18
                      A                      A                      A
 Frequencies --    407.2698               414.7630               419.5901
 Red. masses --      7.3579                 3.0558                 3.1665
 Frc consts  --      0.7191                 0.3097                 0.3285
 IR Inten    --      5.8990                 0.3023                 0.3437

                     19                     20                     21
                      A                      A                      A
 Frequencies --    439.8543               455.5856               498.2195
 Red. masses --      9.1625                 6.6924                 4.4653
 Frc consts  --      1.0444                 0.8184                 0.6530
 IR Inten    --      4.9467                31.6890                14.3990

                     22                     23                     24
                      A                      A                      A
 Frequencies --    530.1700               550.1344               589.1081
 Red. masses --      3.6323                12.8796                 7.0538
 Frc consts  --      0.6015                 2.2966                 1.4423
 IR Inten    --     29.2537               170.3124               212.6137

                     25                     26                     27
                      A                      A                      A
 Frequencies --    628.2103               628.8022               668.5203
 Red. masses --      6.4398                 6.4405                 3.0386
 Frc consts  --      1.4974                 1.5004                 0.8001
 IR Inten    --      0.1144                 0.3410                 8.1703

                     28                     29                     30
                      A                      A                      A
 Frequencies --    690.9107               694.3591               702.7454
 Red. masses --      3.0485                 4.5298                 2.5293
 Frc consts  --      0.8574                 1.2867                 0.7359
 IR Inten    --      9.7688                 7.1193                50.9719

                     31                     32                     33
                      A                      A                      A
 Frequencies --    705.7178               708.9385               738.5675
 Red. masses --      2.3363                 6.8191                 3.2818
 Frc consts  --      0.6856                 2.0193                 1.0547
 IR Inten    --     20.0600                28.3148               108.4569

                     34                     35                     36
                      A                      A                      A
 Frequencies --    749.5359               761.9674               777.8071
 Red. masses --      8.1467                 1.5165                 1.6389
 Frc consts  --      2.6966                 0.5188                 0.5842
 IR Inten    --    161.8415                28.6886                64.7864

                     37                     38                     39
                      A                      A                      A
 Frequencies --    854.4836               860.4495               931.4996
 Red. masses --      1.2506                 1.2486                 3.2595
 Frc consts  --      0.5380                 0.5447                 1.6663
 IR Inten    --      0.2849                 0.2388               127.7975

                     40                     41                     42
                      A                      A                      A
 Frequencies --    933.4270               935.7514               981.1224
 Red. masses --      1.3957                 1.8395                 1.3422
 Frc consts  --      0.7165                 0.9490                 0.7612
 IR Inten    --      7.7611                62.2640                 0.2462

                     43                     44                     45
                      A                      A                      A
 Frequencies --    983.3881               998.6814              1007.8407
 Red. masses --      1.3521                 7.5249                 1.2599
 Frc consts  --      0.7704                 4.4219                 0.7540
 IR Inten    --      0.3249                52.7933                 0.4786

                     46                     47                     48
                      A                      A                      A
 Frequencies --   1010.8125              1015.1478              1018.0970
 Red. masses --      1.2614                 6.4827                 5.9678
 Frc consts  --      0.7593                 3.9361                 3.6445
 IR Inten    --      0.0680                 7.8730                 1.9165

                     49                     50                     51
                      A                      A                      A
 Frequencies --   1046.3316              1052.0949              1057.2416
 Red. masses --      4.5266                 2.6366                 2.9259
 Frc consts  --      2.9198                 1.7195                 1.9269
 IR Inten    --     73.3549                 1.2912                40.3298

                     52                     53                     54
                      A                      A                      A
 Frequencies --   1068.0870              1089.7169              1104.0281
 Red. masses --      2.3575                 4.4628                 1.5666
 Frc consts  --      1.5846                 3.1224                 1.1250
 IR Inten    --    292.9327               309.7053                18.7983

                     55                     56                     57
                      A                      A                      A
 Frequencies --   1112.5093              1121.3682              1189.2432
 Red. masses --      1.6783                 3.4449                 1.1011
 Frc consts  --      1.2238                 2.5522                 0.9175
 IR Inten    --     28.9153               191.1914                 0.0840

                     58                     59                     60
                      A                      A                      A
 Frequencies --   1189.9918              1200.6056              1204.1185
 Red. masses --      1.0983                 1.5334                 1.4439
 Frc consts  --      0.9164                 1.3023                 1.2334
 IR Inten    --      0.7596                93.6562                83.5951

                     61                     62                     63
                      A                      A                      A
 Frequencies --   1205.4406              1236.7728              1248.2252
 Red. masses --      2.3853                 4.2755                 5.1974
 Frc consts  --      2.0421                 3.8532                 4.7711
 IR Inten    --    207.3341                43.2349                 8.2249

                     64                     65                     66
                      A                      A                      A
 Frequencies --   1282.2674              1336.6273              1340.1917
 Red. masses --      2.9886                 1.8019                 2.3996
 Frc consts  --      2.8951                 1.8967                 2.5394
 IR Inten    --    259.0579                53.1498                97.7201

                     67                     68                     69
                      A                      A                      A
 Frequencies --   1360.5498              1368.4166              1380.9859
 Red. masses --      5.2168                 2.5186                 3.7366
 Frc consts  --      5.6896                 2.7787                 4.1986
 IR Inten    --      2.5717                 0.0812               427.0284

                     70                     71                     72
                      A                      A                      A
 Frequencies --   1453.9528              1488.7931              1513.6079
 Red. masses --      4.5235                 2.1534                 2.5077
 Frc consts  --      5.6342                 2.8122                 3.3849
 IR Inten    --    212.7075                18.1878                24.6993

                     73                     74                     75
                      A                      A                      A
 Frequencies --   1524.7513              1547.2746              1584.6589
 Red. masses --      2.0897                 2.6740                 6.6540
 Frc consts  --      2.8625                 3.7717                 9.8448
 IR Inten    --      6.8719               387.4883               436.2155

                     76                     77                     78
                      A                      A                      A
 Frequencies --   1642.4612              1646.3425              1653.2443
 Red. masses --      5.8715                 5.5358                 6.3041
 Frc consts  --      9.3323                 8.8404                10.1520
 IR Inten    --      0.3588                 0.0822                 6.4421

                     79                     80                     81
                      A                      A                      A
 Frequencies --   1659.9585              3206.3087              3210.5235
 Red. masses --      5.7039                 1.0858                 1.0861
 Frc consts  --      9.2602                 6.5768                 6.5958
 IR Inten    --     45.5557                 0.3834                 0.2724

                     82                     83                     84
                      A                      A                      A
 Frequencies --   3215.3913              3219.4416              3223.3283
 Red. masses --      1.0887                 1.0900                 1.0928
 Frc consts  --      6.6317                 6.6565                 6.6899
 IR Inten    --     14.6054                21.9946                34.9866

                     85                     86                     87
                      A                      A                      A
 Frequencies --   3229.5853              3231.4057              3240.9543
 Red. masses --      1.0944                 1.0965                 1.0947
 Frc consts  --      6.7256                 6.7459                 6.7746
 IR Inten    --     47.1845                31.9045                11.5714

                     88                     89                     90
                      A                      A                      A
 Frequencies --   3246.9369              3258.2149              3334.8763
 Red. masses --      1.0922                 1.0926                 1.0983
 Frc consts  --      6.7841                 6.8342                 7.1968
 IR Inten    --      7.9891                 2.4145                 6.2194

 - Thermochemistry -
 -------------------
 Temperature   298.150 Kelvin.  Pressure   1.00000 Atm.
 Atom     1 has atomic number  8 and mass  15.99491

 Molecular mass:   299.06027 amu.
 Principal axes and moments of inertia in atomic units:
                           1         2         3
     Eigenvalues --  2864.71031********************
           X            0.99539   0.07691  -0.05737
           Y           -0.04309   0.89255   0.44888
           Z            0.08573  -0.44434   0.89175
 This molecule is an asymmetric top.
 Rotational symmetry number  1.
 Warning -- assumption of classical behavior for rotation
           may cause significant error
 Rotational temperatures (Kelvin)      0.03023     0.00641     0.00596
 Rotational constants (GHZ):           0.62999     0.13364     0.12428
 Zero-point vibrational energy     618173.8 (Joules/Mol)
                                  147.74708 (Kcal/Mol)
 Warning -- explicit consideration of  24 degrees of freedom as
           vibrations may cause significant error
 Vibrational temperatures:     22.80    37.02    54.75    86.00   113.24
          (Kelvin)            125.05   179.80   216.64   265.35   323.64
                              382.33   412.36   436.82   450.74   536.86
                              585.97   596.75   603.70   632.85   655.49
                              716.83   762.80   791.52   847.60   903.85
                              904.71   961.85   994.07   999.03  1011.09
                             1015.37  1020.00  1062.63  1078.42  1096.30
                             1119.09  1229.41  1237.99  1340.22  1342.99
                             1346.34  1411.62  1414.88  1436.88  1450.06
                             1454.33  1460.57  1464.81  1505.44  1513.73
                             1521.13  1536.74  1567.86  1588.45  1600.65
                             1613.40  1711.06  1712.13  1727.40  1732.46
                             1734.36  1779.44  1795.92  1844.90  1923.11
                             1928.24  1957.53  1968.85  1986.93  2091.91
                             2142.04  2177.74  2193.78  2226.18  2279.97
                             2363.14  2368.72  2378.65  2388.31  4613.16
                             4619.23  4626.23  4632.06  4637.65  4646.65
                             4649.27  4663.01  4671.62  4687.84  4798.14

 Zero-point correction=                           0.235450 (Hartree/Particle)
 Thermal correction to Energy=                    0.252283
 Thermal correction to Enthalpy=                  0.253227
 Thermal correction to Gibbs Free Energy=         0.187729
 Sum of electronic and zero-point Energies=          -1307.562541
 Sum of electronic and thermal Energies=             -1307.545707
 Sum of electronic and thermal Enthalpies=           -1307.544763
 Sum of electronic and thermal Free Energies=        -1307.610261

                     E (Thermal)             CV                S
                      KCal/Mol        Cal/Mol-Kelvin    Cal/Mol-Kelvin
 Total                  158.310             65.389            137.852
 Electronic               0.000              0.000              0.000
 Translational            0.889              2.981             42.983
 Rotational               0.889              2.981             34.684
 Vibrational            156.533             59.427             60.185
 Vibration     1          0.593              1.986              7.096
 Vibration     2          0.593              1.985              6.134
 Vibration     3          0.594              1.982              5.358
 Vibration     4          0.597              1.973              4.465
 Vibration     5          0.600              1.963              3.923
 Vibration     6          0.601              1.958              3.728
 Vibration     7          0.610              1.928              3.022
 Vibration     8          0.618              1.902              2.665
 Vibration     9          0.631              1.861              2.283
 Vibration    10          0.650              1.803              1.919
 Vibration    11          0.672              1.736              1.624
 Vibration    12          0.684              1.699              1.494
 Vibration    13          0.695              1.667              1.397
 Vibration    14          0.701              1.648              1.345
 Vibration    15          0.745              1.527              1.067
 Vibration    16          0.772              1.454              0.936
 Vibration    17          0.778              1.438              0.910
 Vibration    18          0.782              1.428              0.893
 Vibration    19          0.800              1.383              0.827
 Vibration    20          0.814              1.349              0.779
 Vibration    21          0.854              1.254              0.663
 Vibration    22          0.885              1.183              0.587
 Vibration    23          0.905              1.139              0.544
 Vibration    24          0.946              1.055              0.469

                           ! Non-Optimized Parameters !
 Normal termination of Gaussian 16 at Thu Sep 24 15:19:46 2020.

 ----------------------------------------------------------------------
 #p b3lyp/6-31G(d) scrf=(iefpcm,read,solvent=water) geom=allcheck guess
 =read
 ----------------------------------------------------------------------

 Structure from the checkpoint file:  "SM45_m1.a.4.pdb.xyz.mst.a.w.chk"
 -------------------
 SM45_m1.a.4.pdb.xyz
 -------------------
 Charge = -1 Multiplicity = 1

 SCF Done:  E(RB3LYP) =  -1307.79797177     A.U. after    7 cycles
 Normal termination of Gaussian 16 at Thu Sep 24 15:20:24 2020.

 -----------------------------
 #p B3LYP/6-31G* geom=allcheck
 -----------------------------

 Structure from the checkpoint file:  "SM45_m1.a.4.pdb.xyz.mst.a.w.chk"
 -------------------
 SM45_m1.a.4.pdb.xyz
 -------------------
 Charge = -1 Multiplicity = 1

 SCF Done:  E(RB3LYP) =  -1307.69462340     A.U. after   15 cycles

 The electronic state is 1-A.
 Alpha  occ. eigenvalues --  -88.92975 -18.95391 -18.95130 -14.30670 -14.25783
 Alpha  occ. eigenvalues --  -14.21244 -14.14620 -10.15217 -10.11810 -10.11595
 Alpha  occ. eigenvalues --  -10.11337 -10.11307 -10.10815 -10.10545 -10.08545
 Alpha  occ. eigenvalues --  -10.08465 -10.08267 -10.08126 -10.08033 -10.07774
 Alpha  occ. eigenvalues --  -10.07307  -7.95327  -5.91795  -5.91748  -5.91712
 Alpha  occ. eigenvalues --   -0.96609  -0.91652  -0.80978  -0.80036  -0.76152
 Alpha  occ. eigenvalues --   -0.74106  -0.73394  -0.67364  -0.66415  -0.64576
 Alpha  occ. eigenvalues --   -0.63335  -0.63312  -0.54951  -0.53800  -0.51573
 Alpha  occ. eigenvalues --   -0.49203  -0.48196  -0.47986  -0.45467  -0.42986
 Alpha  occ. eigenvalues --   -0.41175  -0.38852  -0.37376  -0.36994  -0.35406
 Alpha  occ. eigenvalues --   -0.34826  -0.34284  -0.33670  -0.33094  -0.32515
 Alpha  occ. eigenvalues --   -0.31038  -0.30234  -0.28651  -0.28453  -0.27202
 Alpha  occ. eigenvalues --   -0.26869  -0.25334  -0.24933  -0.23216  -0.21318
 Alpha  occ. eigenvalues --   -0.20897  -0.17633  -0.17065  -0.16146  -0.15389
 Alpha  occ. eigenvalues --   -0.14625  -0.14026  -0.13859  -0.13102  -0.11812
 Alpha  occ. eigenvalues --   -0.11578  -0.08906  -0.04966
 Alpha virt. eigenvalues --    0.06794   0.07496   0.10350   0.11324   0.14049
 Alpha virt. eigenvalues --    0.16483   0.19362   0.20454   0.20917   0.22625
 Alpha virt. eigenvalues --    0.24055   0.24589   0.24756   0.25128   0.25704

 Mulliken charges:
               1
     1  O   -0.606289
     2  S    1.141755
     3  N   -0.691755
     4  C    0.431050
     5  N   -0.354243
     6  N   -0.119265
     7  C   -0.042910
     8  N   -0.360045
     9  C    0.340370
    10  C   -0.167937
    11  C   -0.144167
    12  C   -0.129005
    13  C   -0.143616
    14  C   -0.150904
    15  C   -0.130543
    16  C   -0.133393
    17  C   -0.128914
    18  C   -0.130682
    19  C   -0.132364
    20  C   -0.138971
    21  O   -0.600573
    22  H    0.135641
    23  H    0.140126
    24  H    0.114081
    25  H    0.105808
    26  H    0.115669
    27  H    0.168039
    28  H    0.166997
    29  H    0.101845
    30  H    0.094242
    31  H    0.098625
    32  H    0.151331
 Sum of Mulliken charges =  -1.00000

 Dipole moment (field-independent basis, Debye):
    X=              8.5191    Y=              6.2754    Z=              2.7739  Tot=             10.9384
 Quadrupole moment (field-independent basis, Debye-Ang):
   XX=           -160.0538   YY=           -148.2803   ZZ=           -130.9803
   XY=            -21.4641   XZ=             -0.2664   YZ=             -3.1910

 Normal termination of Gaussian 16 at Thu Sep 24 15:21:09 2020.
 Gaussian 16:  ES64L-G16RevB.01 20-Dec-2017

 ----------------------------------------------------------------------
 #p mp2/aug-cc-pVDZ scf=(MaxCycle=2000,NoVarAcc,NoIncFock) maxdisk=120G
 B geom=allcheck
 ----------------------------------------------------------------------

 Structure from the checkpoint file:  "SM45_m1.a.4.pdb.xyz.mst.a.w.chk"
 -------------------
 SM45_m1.a.4.pdb.xyz
 -------------------
 Charge = -1 Multiplicity = 1

                         Standard orientation:
 ---------------------------------------------------------------------
 Center     Atomic      Atomic             Coordinates (Angstroms)
 Number     Number       Type             X           Y           Z
 ---------------------------------------------------------------------
      1          8           0       -2.383255   -1.646326   -1.687712
      2         16           0       -2.425265   -1.469301   -0.209041
      3          7           0       -1.019334   -1.604037    0.535443
      4          6           0        0.088871   -0.919252    0.089002
      5          7           0        0.151780    0.020363   -0.915699
      6          7           0        1.385361    0.463265   -1.028242
      7          6           0        1.370760   -1.047396    0.610870
      8          7           0        2.133835   -0.178153   -0.110142
      9          6           0        3.522782    0.097739    0.015397
     10          6           0        4.197429   -0.249556    1.189320
     11          6           0        5.561505    0.018115    1.299109
     12          6           0        6.247605    0.637748    0.253334
     13          6           0        5.560491    0.986497   -0.911859
     14          6           0        4.200969    0.714098   -1.040377
     15          6           0       -3.070581    0.194739    0.062040
     16          6           0       -3.224639    1.070423   -1.011504
     17          6           0       -3.718547    2.356416   -0.784891
     18          6           0       -4.052454    2.760203    0.508367
     19          6           0       -3.895774    1.876196    1.580157
     20          6           0       -3.404355    0.590685    1.360641
     21          8           0       -3.360281   -2.376384    0.506540
     22          1           0        1.771303   -1.678057    1.384626
     23          1           0        3.663371   -0.712448    2.010277
     24          1           0        6.083443   -0.253562    2.210152
     25          1           0        7.307914    0.846809    0.344988
     26          1           0        6.085222    1.465701   -1.731194
     27          1           0        3.660072    0.968621   -1.942055
     28          1           0       -2.962942    0.736272   -2.007825
     29          1           0       -3.841900    3.039945   -1.618262
     30          1           0       -4.435245    3.760165    0.683094
     31          1           0       -4.158517    2.187706    2.585538
     32          1           0       -3.286054   -0.100649    2.187532
 ---------------------------------------------------------------------

 SCF Done:  E(RHF) =  -1301.61189914     A.U. after   17 cycles
