 Gaussian 16, Revision B.01,

 ----------------------------------------------------------------------
 #p b3lyp/6-31G(d) opt freq NoSymm scf=(MaxCycle=2000,NoVarAcc,NoIncFoc
 k) scrf=(iefpcm,read,solvent=water)
 ----------------------------------------------------------------------

 -------------------
 SM45_m2.b.6.pdb.xyz
 -------------------
 Symbolic Z-matrix:
 Charge =  1 Multiplicity = 1

 SCF Done:  E(RB3LYP) =  -1308.71022572     A.U. after   13 cycles
 SCF Done:  E(RB3LYP) =  -1308.71593538     A.U. after   11 cycles
 SCF Done:  E(RB3LYP) =  -1308.71787800     A.U. after   10 cycles
 SCF Done:  E(RB3LYP) =  -1308.71807569     A.U. after   10 cycles
 SCF Done:  E(RB3LYP) =  -1308.71815354     A.U. after   10 cycles
 SCF Done:  E(RB3LYP) =  -1308.71817864     A.U. after    9 cycles
 SCF Done:  E(RB3LYP) =  -1308.71819938     A.U. after    9 cycles
 SCF Done:  E(RB3LYP) =  -1308.71820347     A.U. after    9 cycles
 SCF Done:  E(RB3LYP) =  -1308.71820469     A.U. after    8 cycles
 SCF Done:  E(RB3LYP) =  -1308.71820050     A.U. after    9 cycles
 SCF Done:  E(RB3LYP) =  -1308.71826079     A.U. after    9 cycles
 SCF Done:  E(RB3LYP) =  -1308.71826022     A.U. after    8 cycles
 SCF Done:  E(RB3LYP) =  -1308.71826921     A.U. after    8 cycles
 SCF Done:  E(RB3LYP) =  -1308.71827320     A.U. after    8 cycles
 SCF Done:  E(RB3LYP) =  -1308.71827453     A.U. after    7 cycles
 SCF Done:  E(RB3LYP) =  -1308.71827459     A.U. after    7 cycles
 Optimization completed.
    -- Stationary point found.
 Normal termination of Gaussian 16 at Thu Sep 24 15:20:17 2020.

 --------------------------------------------------------------------
 #P Geom=AllCheck Guess=TCheck SCRF=Check GenChk RB3LYP/6-31G(d) Freq
 --------------------------------------------------------------------

 Structure from the checkpoint file:  "SM45_m2.b.6.pdb.xyz.mst.b.w.chk"
 -------------------
 SM45_m2.b.6.pdb.xyz
 -------------------
 Charge =  1 Multiplicity = 1

 SCF Done:  E(RB3LYP) =  -1308.71827459     A.U. after    1 cycles

  Exact polarizability: 303.238  28.963 230.546  43.107 -19.482 238.639
 Approx polarizability: 325.397  36.679 268.052  60.236 -31.620 304.300

                      1                      2                      3
                      A                      A                      A
 Frequencies --     17.1374                24.0063                38.2913
 Red. masses --      5.5528                 5.0784                 4.2853
 Frc consts  --      0.0010                 0.0017                 0.0037
 IR Inten    --      1.4338                 1.1380                 1.2254

                      4                      5                      6
                      A                      A                      A
 Frequencies --     47.9238                78.5316                95.3639
 Red. masses --      4.7929                 6.5364                 4.6988
 Frc consts  --      0.0065                 0.0238                 0.0252
 IR Inten    --      1.7804                 6.8207                 4.4002

                      7                      8                      9
                      A                      A                      A
 Frequencies --    116.0738               130.7884               170.5036
 Red. masses --      6.6120                 5.4229                 6.2413
 Frc consts  --      0.0525                 0.0547                 0.1069
 IR Inten    --      2.6020                12.0939                 1.5938

                     10                     11                     12
                      A                      A                      A
 Frequencies --    228.3975               254.2140               284.6416
 Red. masses --      5.2879                 8.2854                 7.6577
 Frc consts  --      0.1625                 0.3155                 0.3655
 IR Inten    --      0.9852                 1.5076                 1.1960

                     13                     14                     15
                      A                      A                      A
 Frequencies --    290.3416               303.8865               372.4621
 Red. masses --      4.8874                 8.8391                 7.1763
 Frc consts  --      0.2427                 0.4809                 0.5866
 IR Inten    --      5.3805                 6.4673                 1.2024

                     16                     17                     18
                      A                      A                      A
 Frequencies --    404.6376               413.8172               417.3136
 Red. masses --      5.3862                 3.0176                 3.1154
 Frc consts  --      0.5196                 0.3045                 0.3197
 IR Inten    --     11.2308                 0.1824                 0.1531

                     19                     20                     21
                      A                      A                      A
 Frequencies --    419.9915               444.9356               478.3614
 Red. masses --      6.2794                 5.2151                 4.1338
 Frc consts  --      0.6526                 0.6083                 0.5573
 IR Inten    --      3.1320                 6.0296                 4.8606

                     22                     23                     24
                      A                      A                      A
 Frequencies --    531.9868               537.3015               544.3133
 Red. masses --      5.5528                 4.6466                 2.4318
 Frc consts  --      0.9259                 0.7903                 0.4245
 IR Inten    --     89.5953                26.9345                86.0083

                     25                     26                     27
                      A                      A                      A
 Frequencies --    590.6381               623.9391               626.1793
 Red. masses --      6.4285                 6.4527                 6.4280
 Frc consts  --      1.3213                 1.4801                 1.4850
 IR Inten    --    485.2718                 0.0393                 1.1954

                     28                     29                     30
                      A                      A                      A
 Frequencies --    674.4250               692.9752               693.5398
 Red. masses --      3.0557                 3.9323                 2.6015
 Frc consts  --      0.8189                 1.1126                 0.7372
 IR Inten    --      6.2199                11.4975                23.4001

                     31                     32                     33
                      A                      A                      A
 Frequencies --    701.1701               702.0609               723.7815
 Red. masses --      3.3282                 4.0680                 6.6040
 Frc consts  --      0.9641                 1.1813                 2.0383
 IR Inten    --     32.1862                60.5068               104.5002

                     34                     35                     36
                      A                      A                      A
 Frequencies --    740.5057               764.6626               780.7437
 Red. masses --      1.2054                 1.4431                 1.6265
 Frc consts  --      0.3894                 0.4971                 0.5841
 IR Inten    --    150.7856                33.4176                88.9019

                     37                     38                     39
                      A                      A                      A
 Frequencies --    791.3786               822.9787               833.1611
 Red. masses --      2.1247                 2.2425                 3.0718
 Frc consts  --      0.7840                 0.8949                 1.2563
 IR Inten    --     77.0401                 9.5674               151.1208

                     40                     41                     42
                      A                      A                      A
 Frequencies --    851.6157               857.6169               944.3287
 Red. masses --      1.2573                 1.2454                 1.3724
 Frc consts  --      0.5372                 0.5397                 0.7211
 IR Inten    --      0.1616                 0.2542                 6.6719

                     43                     44                     45
                      A                      A                      A
 Frequencies --    950.9509               986.7342               989.2505
 Red. masses --      1.3083                 1.3494                 1.3554
 Frc consts  --      0.6971                 0.7741                 0.7815
 IR Inten    --      0.4082                 0.4999                 0.0561

                     46                     47                     48
                      A                      A                      A
 Frequencies --   1006.5885              1012.4869              1018.2652
 Red. masses --      8.2188                 6.4775                 1.2875
 Frc consts  --      4.9064                 3.9124                 0.7866
 IR Inten    --     24.0943                 7.9705                 0.2027

                     49                     50                     51
                      A                      A                      A
 Frequencies --   1022.6112              1023.1466              1044.3516
 Red. masses --      6.2905                 1.2948                 2.9585
 Frc consts  --      3.8758                 0.7986                 1.9012
 IR Inten    --      1.1544                 0.3470                 9.4387

                     52                     53                     54
                      A                      A                      A
 Frequencies --   1052.5584              1072.7584              1078.0060
 Red. masses --      2.1707                 2.5156                 3.0216
 Frc consts  --      1.4169                 1.7057                 2.0689
 IR Inten    --      5.1282               110.6537                45.5340

                     55                     56                     57
                      A                      A                      A
 Frequencies --   1106.3896              1108.2235              1110.5426
 Red. masses --      1.5074                 3.0209                 1.5195
 Frc consts  --      1.0872                 2.1860                 1.1042
 IR Inten    --     10.7773                13.8489                20.9913

                     58                     59                     60
                      A                      A                      A
 Frequencies --   1132.4295              1193.2471              1194.6248
 Red. masses --      7.3105                 1.1011                 1.1019
 Frc consts  --      5.5235                 0.9237                 0.9265
 IR Inten    --    374.0798                 0.6629                 0.5443

                     61                     62                     63
                      A                      A                      A
 Frequencies --   1199.0080              1199.6262              1213.9576
 Red. masses --      1.1430                 1.1692                 1.8740
 Frc consts  --      0.9681                 0.9914                 1.6271
 IR Inten    --      3.7186                 0.9199                71.4103

                     64                     65                     66
                      A                      A                      A
 Frequencies --   1243.2039              1311.4620              1337.5912
 Red. masses --      2.7735                 8.5914                 1.4324
 Frc consts  --      2.5255                 8.7061                 1.5099
 IR Inten    --      4.8549               223.0242                 0.7915

                     67                     68                     69
                      A                      A                      A
 Frequencies --   1342.5851              1353.1685              1363.7365
 Red. masses --      2.1992                 3.1201                 6.5836
 Frc consts  --      2.3356                 3.3661                 7.2140
 IR Inten    --     16.4522               111.1304                 1.4028

                     70                     71                     72
                      A                      A                      A
 Frequencies --   1368.5910              1397.6999              1407.7466
 Red. masses --      3.6299                 2.1907                 2.9261
 Frc consts  --      4.0058                 2.5215                 3.4165
 IR Inten    --      3.1740                20.1348               115.7165

                     73                     74                     75
                      A                      A                      A
 Frequencies --   1463.0144              1492.4296              1501.7156
 Red. masses --      3.3690                 2.1860                 2.0985
 Frc consts  --      4.2486                 2.8687                 2.7882
 IR Inten    --     14.7001                24.1299                22.7316

                     76                     77                     78
                      A                      A                      A
 Frequencies --   1516.6669              1520.0464              1541.2045
 Red. masses --      2.0699                 2.6268                 2.4411
 Frc consts  --      2.8053                 3.5759                 3.4164
 IR Inten    --      3.3875                18.9835                39.1001

                     79                     80                     81
                      A                      A                      A
 Frequencies --   1636.9469              1642.7744              1644.2400
 Red. masses --      5.4946                 5.8263                 5.4635
 Frc consts  --      8.6746                 9.2640                 8.7026
 IR Inten    --      7.2571                14.5599               337.8545

                     82                     83                     84
                      A                      A                      A
 Frequencies --   1653.9146              1663.3319              3218.0757
 Red. masses --      5.6982                 6.1797                 1.0869
 Frc consts  --      9.1837                10.0734                 6.6321
 IR Inten    --     16.3538                99.2603                 1.3713

                     85                     86                     87
                      A                      A                      A
 Frequencies --   3221.7305              3228.2234              3232.3163
 Red. masses --      1.0870                 1.0901                 1.0896
 Frc consts  --      6.6476                 6.6932                 6.7075
 IR Inten    --      0.7153                14.8805                11.2706

                     88                     89                     90
                      A                      A                      A
 Frequencies --   3235.7885              3238.9551              3247.2541
 Red. masses --      1.0943                 1.0934                 1.0965
 Frc consts  --      6.7507                 6.7585                 6.8122
 IR Inten    --     19.7597                28.1652                10.2776

                     91                     92                     93
                      A                      A                      A
 Frequencies --   3249.5794              3250.6966              3257.8015
 Red. masses --      1.0931                 1.0950                 1.0943
 Frc consts  --      6.8007                 6.8173                 6.8429
 IR Inten    --      5.3793                 5.4680                 1.5606

                     94                     95                     96
                      A                      A                      A
 Frequencies --   3353.0143              3506.0540              3532.2939
 Red. masses --      1.1016                 1.0770                 1.0869
 Frc consts  --      7.2972                 7.7998                 7.9900
 IR Inten    --     27.1967               234.9924               545.1146

 - Thermochemistry -
 -------------------
 Temperature   298.150 Kelvin.  Pressure   1.00000 Atm.
 Atom     1 has atomic number  8 and mass  15.99491

 Molecular mass:   301.07592 amu.
 Principal axes and moments of inertia in atomic units:
                           1         2         3
     Eigenvalues --  3376.98141********************
           X            0.99864   0.05154   0.00769
           Y           -0.05088   0.99623  -0.07028
           Z           -0.01129   0.06979   0.99750
 This molecule is an asymmetric top.
 Rotational symmetry number  1.
 Warning -- assumption of classical behavior for rotation
           may cause significant error
 Rotational temperatures (Kelvin)      0.02565     0.00715     0.00629
 Rotational constants (GHZ):           0.53442     0.14900     0.13113
 Zero-point vibrational energy     687556.9 (Joules/Mol)
                                  164.33004 (Kcal/Mol)
 Warning -- explicit consideration of  25 degrees of freedom as
           vibrations may cause significant error
 Vibrational temperatures:     24.66    34.54    55.09    68.95   112.99
          (Kelvin)            137.21   167.00   188.18   245.32   328.61
                              365.76   409.54   417.74   437.22   535.89
                              582.18   595.39   600.42   604.27   640.16
                              688.26   765.41   773.06   783.15   849.80
                              897.71   900.93   970.35   997.04   997.85
                             1008.83  1010.11  1041.36  1065.42  1100.18
                             1123.32  1138.62  1184.08  1198.73  1225.29
                             1233.92  1358.68  1368.21  1419.69  1423.31
                             1448.26  1456.74  1465.06  1471.31  1472.08
                             1502.59  1514.40  1543.46  1551.01  1591.85
                             1594.49  1597.82  1629.31  1716.82  1718.80
                             1725.11  1725.99  1746.61  1788.69  1886.90
                             1924.50  1931.68  1946.91  1962.11  1969.10
                             2010.98  2025.43  2104.95  2147.27  2160.63
                             2182.15  2187.01  2217.45  2355.20  2363.59
                             2365.69  2379.61  2393.16  4630.09  4635.35
                             4644.69  4650.58  4655.58  4660.13  4672.07
                             4675.42  4677.03  4687.25  4824.24  5044.43
                             5082.18

 Zero-point correction=                           0.261877 (Hartree/Particle)
 Thermal correction to Energy=                    0.279145
 Thermal correction to Enthalpy=                  0.280089
 Thermal correction to Gibbs Free Energy=         0.213685
 Sum of electronic and zero-point Energies=          -1308.456398
 Sum of electronic and thermal Energies=             -1308.439129
 Sum of electronic and thermal Enthalpies=           -1308.438185
 Sum of electronic and thermal Free Energies=        -1308.504590

                     E (Thermal)             CV                S
                      KCal/Mol        Cal/Mol-Kelvin    Cal/Mol-Kelvin
 Total                  175.166             67.404            139.760
 Electronic               0.000              0.000              0.000
 Translational            0.889              2.981             43.003
 Rotational               0.889              2.981             34.686
 Vibrational            173.389             61.442             62.071
 Vibration     1          0.593              1.986              6.941
 Vibration     2          0.593              1.985              6.272
 Vibration     3          0.594              1.982              5.346
 Vibration     4          0.595              1.978              4.901
 Vibration     5          0.600              1.964              3.927
 Vibration     6          0.603              1.953              3.547
 Vibration     7          0.608              1.936              3.165
 Vibration     8          0.612              1.923              2.934
 Vibration     9          0.626              1.879              2.430
 Vibration    10          0.651              1.798              1.892
 Vibration    11          0.665              1.756              1.701
 Vibration    12          0.683              1.702              1.506
 Vibration    13          0.686              1.692              1.472
 Vibration    14          0.695              1.666              1.395
 Vibration    15          0.744              1.529              1.070
 Vibration    16          0.770              1.460              0.946
 Vibration    17          0.777              1.440              0.913
 Vibration    18          0.780              1.433              0.901
 Vibration    19          0.783              1.427              0.892
 Vibration    20          0.804              1.372              0.811
 Vibration    21          0.835              1.298              0.714
 Vibration    22          0.887              1.179              0.583
 Vibration    23          0.892              1.168              0.571
 Vibration    24          0.899              1.152              0.556
 Vibration    25          0.948              1.052              0.466

 Optimization completed.
    -- Stationary point found.
 Normal termination of Gaussian 16 at Thu Sep 24 15:32:29 2020.

 ----------------------------------------------------------------------
 #p b3lyp/6-31G(d) scrf=(iefpcm,read,solvent=water) geom=allcheck guess
 =read
 ----------------------------------------------------------------------

 Structure from the checkpoint file:  "SM45_m2.b.6.pdb.xyz.mst.b.w.chk"
 -------------------
 SM45_m2.b.6.pdb.xyz
 -------------------
 Charge =  1 Multiplicity = 1

 SCF Done:  E(RB3LYP) =  -1308.71823579     A.U. after    7 cycles
 Normal termination of Gaussian 16 at Thu Sep 24 15:33:12 2020.

 -----------------------------
 #p B3LYP/6-31G* geom=allcheck
 -----------------------------

 Structure from the checkpoint file:  "SM45_m2.b.6.pdb.xyz.mst.b.w.chk"
 -------------------
 SM45_m2.b.6.pdb.xyz
 -------------------
 Charge =  1 Multiplicity = 1

 SCF Done:  E(RB3LYP) =  -1308.62034521     A.U. after   16 cycles

 The electronic state is 1-A.
 Alpha  occ. eigenvalues --  -89.24877 -19.28071 -19.27383 -14.63941 -14.62240
 Alpha  occ. eigenvalues --  -14.60048 -14.54168 -10.46856 -10.42241 -10.39065
 Alpha  occ. eigenvalues --  -10.35155 -10.34388 -10.33841 -10.33000 -10.32925
 Alpha  occ. eigenvalues --  -10.32794 -10.32752 -10.32650 -10.31867 -10.31791
 Alpha  occ. eigenvalues --  -10.31671  -8.27445  -6.24028  -6.23817  -6.23683
 Alpha  occ. eigenvalues --   -1.32691  -1.24683  -1.15070  -1.13471  -1.10522
 Alpha  occ. eigenvalues --   -1.00511  -1.00360  -0.99016  -0.92720  -0.89871
 Alpha  occ. eigenvalues --   -0.89244  -0.87771  -0.85252  -0.84379  -0.81243
 Alpha  occ. eigenvalues --   -0.76551  -0.75207  -0.74161  -0.73748  -0.72249
 Alpha  occ. eigenvalues --   -0.70227  -0.68663  -0.68593  -0.67842  -0.64922
 Alpha  occ. eigenvalues --   -0.63559  -0.63030  -0.60546  -0.59355  -0.59032
 Alpha  occ. eigenvalues --   -0.57619  -0.56993  -0.56652  -0.56438  -0.55297
 Alpha  occ. eigenvalues --   -0.55116  -0.52815  -0.51281  -0.50152  -0.49882
 Alpha  occ. eigenvalues --   -0.49572  -0.48995  -0.48580  -0.47545  -0.46976
 Alpha  occ. eigenvalues --   -0.45109  -0.44191  -0.43374  -0.42303  -0.39277
 Alpha  occ. eigenvalues --   -0.39099  -0.38400  -0.38066
 Alpha virt. eigenvalues --   -0.21990  -0.17441  -0.14730  -0.14041  -0.13031
 Alpha virt. eigenvalues --   -0.12631  -0.08308  -0.07346  -0.05209  -0.04876
 Alpha virt. eigenvalues --   -0.03528  -0.02497  -0.02454  -0.00951   0.00952

 Mulliken charges:
               1
     1  O   -0.478657
     2  S    1.203258
     3  N   -0.759604
     4  C    0.530667
     5  N   -0.396088
     6  N    0.030252
     7  C    0.031189
     8  N   -0.334677
     9  C    0.308303
    10  C   -0.135083
    11  C   -0.136590
    12  C   -0.102477
    13  C   -0.137139
    14  C   -0.155713
    15  C   -0.155538
    16  C   -0.143342
    17  C   -0.124454
    18  C   -0.112208
    19  C   -0.125577
    20  C   -0.142517
    21  O   -0.542373
    22  H    0.387533
    23  H    0.247040
    24  H    0.190773
    25  H    0.184918
    26  H    0.184436
    27  H    0.182344
    28  H    0.164556
    29  H    0.198774
    30  H    0.179586
    31  H    0.178275
    32  H    0.173087
    33  H    0.179353
    34  H    0.427693
 Sum of Mulliken charges =   1.00000

 Dipole moment (field-independent basis, Debye):
    X=              6.8532    Y=              3.5319    Z=             -2.4171  Tot=              8.0798
 Quadrupole moment (field-independent basis, Debye-Ang):
   XX=            -76.2327   YY=           -109.6722   ZZ=           -107.6613
   XY=            -10.7871   XZ=              3.8585   YZ=             -1.6084

 Normal termination of Gaussian 16 at Thu Sep 24 15:34:08 2020.
 Gaussian 16:  ES64L-G16RevB.01 20-Dec-2017

 ----------------------------------------------------------------------
 #p mp2/aug-cc-pVDZ scf=(MaxCycle=2000,NoVarAcc,NoIncFock) maxdisk=120G
 B geom=allcheck
 ----------------------------------------------------------------------

 Structure from the checkpoint file:  "SM45_m2.b.6.pdb.xyz.mst.b.w.chk"
 -------------------
 SM45_m2.b.6.pdb.xyz
 -------------------
 Charge =  1 Multiplicity = 1

                         Standard orientation:
 ---------------------------------------------------------------------
 Center     Atomic      Atomic             Coordinates (Angstroms)
 Number     Number       Type             X           Y           Z
 ---------------------------------------------------------------------
      1          8           0       -3.746894   -1.853616   -0.788497
      2         16           0       -2.662058   -1.264596   -0.004599
      3          7           0       -1.260521   -1.529524   -0.973651
      4          6           0        0.000455   -1.266805   -0.470342
      5          7           0        0.524656   -1.897332    0.616322
      6          7           0        1.758318   -1.529372    0.883890
      7          6           0        1.011341   -0.438005   -0.913090
      8          7           0        2.049486   -0.651238   -0.058873
      9          6           0        3.344852   -0.033917   -0.081513
     10          6           0        4.043601    0.115549    1.116002
     11          6           0        5.303518    0.707766    1.081682
     12          6           0        5.843302    1.149165   -0.128829
     13          6           0        5.123608    0.994454   -1.314846
     14          6           0        3.865729    0.395269   -1.301308
     15          6           0       -2.906983    0.495681    0.108194
     16          6           0       -3.675204    1.133450   -0.868929
     17          6           0       -3.845043    2.514228   -0.785552
     18          6           0       -3.252249    3.231297    0.257276
     19          6           0       -2.490320    2.575663    1.227330
     20          6           0       -2.309912    1.194928    1.159958
     21          8           0       -2.300643   -1.783368    1.317532
     22          1           0       -1.397399   -1.196773   -1.931119
     23          1           0        1.048008    0.261826   -1.728893
     24          1           0        3.604551   -0.218807    2.046854
     25          1           0        5.857813    0.831288    2.004678
     26          1           0        6.822995    1.612936   -0.147417
     27          1           0        5.541661    1.329851   -2.256674
     28          1           0        3.313143    0.249834   -2.221324
     29          1           0       -4.135012    0.559373   -1.663550
     30          1           0       -4.442196    3.026788   -1.531208
     31          1           0       -3.388597    4.305472    0.316308
     32          1           0       -2.040161    3.135874    2.038876
     33          1           0       -1.734252    0.667107    1.909880
     34          1           0        0.078936   -2.595454    1.214883
 ---------------------------------------------------------------------

 SCF Done:  E(RHF) =  -1302.53457646     A.U. after   17 cycles
