 Gaussian 16, Revision B.01,

 ----------------------------------------------------------------------
 #p b3lyp/6-31G(d) opt freq NoSymm scf=(MaxCycle=2000,NoVarAcc,NoIncFoc
 k) scrf=(iefpcm,read,solvent=water)
 ----------------------------------------------------------------------

 -------------------
 SM45_m2.b.3.pdb.xyz
 -------------------
 Symbolic Z-matrix:
 Charge =  1 Multiplicity = 1

 SCF Done:  E(RB3LYP) =  -1308.70993648     A.U. after   13 cycles
 SCF Done:  E(RB3LYP) =  -1308.71576289     A.U. after   11 cycles
 SCF Done:  E(RB3LYP) =  -1308.71783952     A.U. after   10 cycles
 SCF Done:  E(RB3LYP) =  -1308.71806481     A.U. after   10 cycles
 SCF Done:  E(RB3LYP) =  -1308.71815245     A.U. after   10 cycles
 SCF Done:  E(RB3LYP) =  -1308.71818794     A.U. after    9 cycles
 SCF Done:  E(RB3LYP) =  -1308.71821481     A.U. after    9 cycles
 SCF Done:  E(RB3LYP) =  -1308.71822982     A.U. after    9 cycles
 SCF Done:  E(RB3LYP) =  -1308.71820942     A.U. after   10 cycles
 SCF Done:  E(RB3LYP) =  -1308.71824881     A.U. after    9 cycles
 SCF Done:  E(RB3LYP) =  -1308.71828114     A.U. after    9 cycles
 SCF Done:  E(RB3LYP) =  -1308.71828592     A.U. after    8 cycles
 SCF Done:  E(RB3LYP) =  -1308.71829316     A.U. after    8 cycles
 SCF Done:  E(RB3LYP) =  -1308.71829606     A.U. after    7 cycles
 SCF Done:  E(RB3LYP) =  -1308.71829801     A.U. after    7 cycles
 SCF Done:  E(RB3LYP) =  -1308.71830046     A.U. after    7 cycles
 Optimization completed.
    -- Stationary point found.
 Normal termination of Gaussian 16 at Thu Sep 24 15:07:42 2020.

 --------------------------------------------------------------------
 #P Geom=AllCheck Guess=TCheck SCRF=Check GenChk RB3LYP/6-31G(d) Freq
 --------------------------------------------------------------------

 Structure from the checkpoint file:  "SM45_m2.b.3.pdb.xyz.mst.b.w.chk"
 -------------------
 SM45_m2.b.3.pdb.xyz
 -------------------
 Charge =  1 Multiplicity = 1

 SCF Done:  E(RB3LYP) =  -1308.71830046     A.U. after    1 cycles

  Exact polarizability: 302.375  28.900 230.418  42.634 -18.857 239.587
 Approx polarizability: 324.294  36.266 268.091  59.861 -31.265 305.386

                      1                      2                      3
                      A                      A                      A
 Frequencies --     18.5953                24.4205                40.2355
 Red. masses --      5.4003                 5.2140                 4.3020
 Frc consts  --      0.0011                 0.0018                 0.0041
 IR Inten    --      1.4786                 1.0530                 1.1640

                      4                      5                      6
                      A                      A                      A
 Frequencies --     48.4687                80.2566                99.0066
 Red. masses --      4.7552                 6.3185                 4.5956
 Frc consts  --      0.0066                 0.0240                 0.0265
 IR Inten    --      2.0183                 5.1979                 3.4758

                      7                      8                      9
                      A                      A                      A
 Frequencies --    117.5595               136.4429               171.7879
 Red. masses --      6.4345                 5.9587                 6.2248
 Frc consts  --      0.0524                 0.0654                 0.1082
 IR Inten    --      3.6511                12.0404                 1.4368

                     10                     11                     12
                      A                      A                      A
 Frequencies --    229.0341               253.5749               286.5256
 Red. masses --      5.3090                 8.2265                 7.9258
 Frc consts  --      0.1641                 0.3117                 0.3834
 IR Inten    --      0.8907                 1.5562                 1.1745

                     13                     14                     15
                      A                      A                      A
 Frequencies --    290.4504               304.5691               373.5364
 Red. masses --      4.8344                 8.8516                 7.2017
 Frc consts  --      0.2403                 0.4838                 0.5920
 IR Inten    --      4.9295                 6.6374                 1.0369

                     16                     17                     18
                      A                      A                      A
 Frequencies --    405.1237               413.6069               417.5124
 Red. masses --      5.4230                 2.9908                 3.0743
 Frc consts  --      0.5244                 0.3014                 0.3157
 IR Inten    --     11.1436                 0.1890                 0.2053

                     19                     20                     21
                      A                      A                      A
 Frequencies --    420.8673               445.5644               478.7613
 Red. masses --      6.7114                 5.2306                 4.1334
 Frc consts  --      0.7004                 0.6118                 0.5582
 IR Inten    --      3.0947                 5.9576                 4.7034

                     22                     23                     24
                      A                      A                      A
 Frequencies --    532.2168               537.8148               546.1996
 Red. masses --      5.4181                 4.9836                 2.3544
 Frc consts  --      0.9042                 0.8493                 0.4138
 IR Inten    --     84.8572                37.5047                80.1091

                     25                     26                     27
                      A                      A                      A
 Frequencies --    590.6904               623.5572               626.1857
 Red. masses --      6.2354                 6.4399                 6.4317
 Frc consts  --      1.2818                 1.4753                 1.4859
 IR Inten    --    485.6918                 0.0297                 1.1593

                     28                     29                     30
                      A                      A                      A
 Frequencies --    675.1123               693.0007               693.4756
 Red. masses --      3.1282                 3.9577                 2.5830
 Frc consts  --      0.8400                 1.1199                 0.7319
 IR Inten    --      6.3783                11.9061                23.2460

                     31                     32                     33
                      A                      A                      A
 Frequencies --    701.1818               702.1249               723.5827
 Red. masses --      3.3032                 4.1630                 6.6011
 Frc consts  --      0.9569                 1.2092                 2.0363
 IR Inten    --     29.9023                60.6687               106.4414

                     34                     35                     36
                      A                      A                      A
 Frequencies --    746.7604               764.7153               780.7528
 Red. masses --      1.1960                 1.4499                 1.6305
 Frc consts  --      0.3929                 0.4996                 0.5856
 IR Inten    --    141.4198                32.5333                88.8035

                     37                     38                     39
                      A                      A                      A
 Frequencies --    792.7327               823.3070               833.6969
 Red. masses --      2.0915                 2.2188                 3.0976
 Frc consts  --      0.7744                 0.8861                 1.2685
 IR Inten    --     86.3705                 8.8633               154.1535

                     40                     41                     42
                      A                      A                      A
 Frequencies --    851.6169               857.2470               944.2831
 Red. masses --      1.2589                 1.2468                 1.3730
 Frc consts  --      0.5379                 0.5398                 0.7213
 IR Inten    --      0.3052                 0.3064                 6.6740

                     43                     44                     45
                      A                      A                      A
 Frequencies --    949.9512               986.8388               988.6515
 Red. masses --      1.3111                 1.3494                 1.3575
 Frc consts  --      0.6971                 0.7743                 0.7818
 IR Inten    --      0.3990                 0.5686                 0.0799

                     46                     47                     48
                      A                      A                      A
 Frequencies --   1006.6617              1012.4404              1018.3540
 Red. masses --      8.2318                 6.4748                 1.2877
 Frc consts  --      4.9149                 3.9104                 0.7868
 IR Inten    --     24.0408                 8.1721                 0.2365

                     49                     50                     51
                      A                      A                      A
 Frequencies --   1022.6293              1022.7554              1044.1506
 Red. masses --      6.2952                 1.2967                 2.9520
 Frc consts  --      3.8788                 0.7991                 1.8962
 IR Inten    --      1.1392                 0.3602                 9.2472

                     52                     53                     54
                      A                      A                      A
 Frequencies --   1052.6248              1073.9982              1078.3193
 Red. masses --      2.1563                 2.6339                 2.9597
 Frc consts  --      1.4077                 1.7900                 2.0277
 IR Inten    --      5.1353               118.5348                36.3124

                     55                     56                     57
                      A                      A                      A
 Frequencies --   1107.0006              1108.5132              1110.6833
 Red. masses --      1.5157                 2.5301                 1.6727
 Frc consts  --      1.0943                 1.8318                 1.2157
 IR Inten    --     12.0485                25.7316                 9.8215

                     58                     59                     60
                      A                      A                      A
 Frequencies --   1132.6101              1192.7183              1194.3809
 Red. masses --      7.3601                 1.1068                 1.0985
 Frc consts  --      5.5628                 0.9277                 0.9233
 IR Inten    --    375.4362                 0.8476                 0.3841

                     61                     62                     63
                      A                      A                      A
 Frequencies --   1199.4199              1200.4165              1217.4582
 Red. masses --      1.1404                 1.1708                 1.9007
 Frc consts  --      0.9666                 0.9940                 1.6599
 IR Inten    --      2.9826                 1.6307                74.9740

                     64                     65                     66
                      A                      A                      A
 Frequencies --   1244.4080              1311.7870              1337.7225
 Red. masses --      2.7762                 8.7504                 1.4328
 Frc consts  --      2.5330                 8.8717                 1.5107
 IR Inten    --      5.2963               222.1538                 0.8189

                     67                     68                     69
                      A                      A                      A
 Frequencies --   1343.3221              1353.4214              1363.7541
 Red. masses --      2.1998                 3.1665                 6.5050
 Frc consts  --      2.3388                 3.4174                 7.1280
 IR Inten    --     17.6789               109.4349                 1.6136

                     70                     71                     72
                      A                      A                      A
 Frequencies --   1368.6398              1399.2025              1409.7904
 Red. masses --      3.6575                 2.1402                 2.9660
 Frc consts  --      4.0366                 2.4687                 3.4732
 IR Inten    --      3.2238                28.3192               106.2156

                     73                     74                     75
                      A                      A                      A
 Frequencies --   1464.6221              1492.1859              1502.9842
 Red. masses --      3.1977                 2.1913                 2.0900
 Frc consts  --      4.0415                 2.8747                 2.7817
 IR Inten    --     13.3673                24.6000                24.6330

                     76                     77                     78
                      A                      A                      A
 Frequencies --   1516.6913              1520.2507              1541.4782
 Red. masses --      2.0690                 2.6105                 2.4450
 Frc consts  --      2.8042                 3.5547                 3.4230
 IR Inten    --      3.3707                17.4212                38.2227

                     79                     80                     81
                      A                      A                      A
 Frequencies --   1637.0157              1642.6623              1644.9316
 Red. masses --      5.4856                 5.8421                 5.4097
 Frc consts  --      8.6612                 9.2878                 8.6241
 IR Inten    --      7.2976                 4.8123               329.9615

                     82                     83                     84
                      A                      A                      A
 Frequencies --   1654.1870              1663.5761              3217.6098
 Red. masses --      5.6724                 6.1097                 1.0870
 Frc consts  --      9.1451                 9.9623                 6.6302
 IR Inten    --     28.8582               109.2594                 1.1458

                     85                     86                     87
                      A                      A                      A
 Frequencies --   3221.6414              3227.3100              3232.3599
 Red. masses --      1.0870                 1.0901                 1.0896
 Frc consts  --      6.6473                 6.6895                 6.7075
 IR Inten    --      0.8452                14.5123                10.9324

                     88                     89                     90
                      A                      A                      A
 Frequencies --   3235.1134              3238.7800              3247.4649
 Red. masses --      1.0944                 1.0934                 1.0965
 Frc consts  --      6.7483                 6.7578                 6.8132
 IR Inten    --     19.8272                28.2076                10.5478

                     91                     92                     93
                      A                      A                      A
 Frequencies --   3249.4933              3250.7631              3257.5418
 Red. masses --      1.0933                 1.0949                 1.0943
 Frc consts  --      6.8018                 6.8168                 6.8419
 IR Inten    --      6.1292                 5.0653                 1.5145

                     94                     95                     96
                      A                      A                      A
 Frequencies --   3352.9915              3505.5672              3536.1650
 Red. masses --      1.1017                 1.0769                 1.0865
 Frc consts  --      7.2973                 7.7975                 8.0047
 IR Inten    --     27.1472               232.4852               542.8627

 - Thermochemistry -
 -------------------
 Temperature   298.150 Kelvin.  Pressure   1.00000 Atm.
 Atom     1 has atomic number  8 and mass  15.99491

 Molecular mass:   301.07592 amu.
 Principal axes and moments of inertia in atomic units:
                           1         2         3
     Eigenvalues --  3378.43037********************
           X            0.99888   0.04604   0.01111
           Y           -0.04488   0.99504  -0.08878
           Z           -0.01514   0.08818   0.99599
 This molecule is an asymmetric top.
 Rotational symmetry number  1.
 Warning -- assumption of classical behavior for rotation
           may cause significant error
 Rotational temperatures (Kelvin)      0.02564     0.00715     0.00630
 Rotational constants (GHZ):           0.53420     0.14899     0.13127
 Zero-point vibrational energy     687865.7 (Joules/Mol)
                                  164.40385 (Kcal/Mol)
 Warning -- explicit consideration of  25 degrees of freedom as
           vibrations may cause significant error
 Vibrational temperatures:     26.75    35.14    57.89    69.74   115.47
          (Kelvin)            142.45   169.14   196.31   247.16   329.53
                              364.84   412.25   417.89   438.21   537.44
                              582.88   595.09   600.71   605.53   641.07
                              688.83   765.74   773.80   785.86   849.87
                              897.16   900.94   971.34   997.07   997.76
                             1008.84  1010.20  1041.07  1074.42  1100.25
                             1123.33  1140.57  1184.56  1199.50  1225.29
                             1233.39  1358.61  1366.77  1419.84  1422.45
                             1448.36  1456.68  1465.18  1471.34  1471.52
                             1502.30  1514.49  1545.24  1551.46  1592.73
                             1594.90  1598.03  1629.57  1716.06  1718.45
                             1725.70  1727.13  1751.65  1790.43  1887.37
                             1924.68  1932.74  1947.27  1962.14  1969.17
                             2013.14  2028.37  2107.26  2146.92  2162.46
                             2182.18  2187.30  2217.84  2355.30  2363.42
                             2366.69  2380.01  2393.51  4629.42  4635.22
                             4643.38  4650.64  4654.61  4659.88  4672.38
                             4675.30  4677.12  4686.88  4824.21  5043.73
                             5087.75

 Zero-point correction=                           0.261994 (Hartree/Particle)
 Thermal correction to Energy=                    0.279216
 Thermal correction to Enthalpy=                  0.280160
 Thermal correction to Gibbs Free Energy=         0.214039
 Sum of electronic and zero-point Energies=          -1308.456306
 Sum of electronic and thermal Energies=             -1308.439084
 Sum of electronic and thermal Enthalpies=           -1308.438140
 Sum of electronic and thermal Free Energies=        -1308.504262

                     E (Thermal)             CV                S
                      KCal/Mol        Cal/Mol-Kelvin    Cal/Mol-Kelvin
 Total                  175.211             67.352            139.164
 Electronic               0.000              0.000              0.000
 Translational            0.889              2.981             43.003
 Rotational               0.889              2.981             34.686
 Vibrational            173.433             61.390             61.475
 Vibration     1          0.593              1.986              6.779
 Vibration     2          0.593              1.985              6.238
 Vibration     3          0.594              1.981              5.247
 Vibration     4          0.595              1.978              4.879
 Vibration     5          0.600              1.963              3.885
 Vibration     6          0.604              1.950              3.474
 Vibration     7          0.608              1.935              3.140
 Vibration     8          0.614              1.917              2.853
 Vibration     9          0.626              1.877              2.416
 Vibration    10          0.652              1.797              1.887
 Vibration    11          0.665              1.757              1.706
 Vibration    12          0.684              1.699              1.494
 Vibration    13          0.686              1.692              1.471
 Vibration    14          0.695              1.665              1.392
 Vibration    15          0.745              1.526              1.065
 Vibration    16          0.770              1.459              0.944
 Vibration    17          0.777              1.441              0.914
 Vibration    18          0.781              1.432              0.900
 Vibration    19          0.783              1.425              0.889
 Vibration    20          0.805              1.371              0.809
 Vibration    21          0.835              1.297              0.713
 Vibration    22          0.887              1.179              0.582
 Vibration    23          0.893              1.166              0.570
 Vibration    24          0.901              1.148              0.552
 Vibration    25          0.948              1.052              0.466

 Optimization completed.
    -- Stationary point found.
 Normal termination of Gaussian 16 at Thu Sep 24 15:20:32 2020.

 ----------------------------------------------------------------------
 #p b3lyp/6-31G(d) scrf=(iefpcm,read,solvent=water) geom=allcheck guess
 =read
 ----------------------------------------------------------------------

 Structure from the checkpoint file:  "SM45_m2.b.3.pdb.xyz.mst.b.w.chk"
 -------------------
 SM45_m2.b.3.pdb.xyz
 -------------------
 Charge =  1 Multiplicity = 1

 SCF Done:  E(RB3LYP) =  -1308.71821869     A.U. after    7 cycles
 Normal termination of Gaussian 16 at Thu Sep 24 15:21:16 2020.

 -----------------------------
 #p B3LYP/6-31G* geom=allcheck
 -----------------------------

 Structure from the checkpoint file:  "SM45_m2.b.3.pdb.xyz.mst.b.w.chk"
 -------------------
 SM45_m2.b.3.pdb.xyz
 -------------------
 Charge =  1 Multiplicity = 1

 SCF Done:  E(RB3LYP) =  -1308.62037554     A.U. after   16 cycles

 The electronic state is 1-A.
 Alpha  occ. eigenvalues --  -89.24890 -19.28078 -19.27394 -14.63948 -14.62240
 Alpha  occ. eigenvalues --  -14.60046 -14.54182 -10.46870 -10.42236 -10.39069
 Alpha  occ. eigenvalues --  -10.35163 -10.34389 -10.33846 -10.33005 -10.32931
 Alpha  occ. eigenvalues --  -10.32808 -10.32752 -10.32653 -10.31874 -10.31797
 Alpha  occ. eigenvalues --  -10.31679  -8.27457  -6.24041  -6.23830  -6.23695
 Alpha  occ. eigenvalues --   -1.32691  -1.24692  -1.15074  -1.13482  -1.10531
 Alpha  occ. eigenvalues --   -1.00513  -1.00365  -0.99024  -0.92724  -0.89878
 Alpha  occ. eigenvalues --   -0.89248  -0.87780  -0.85258  -0.84383  -0.81261
 Alpha  occ. eigenvalues --   -0.76560  -0.75214  -0.74167  -0.73755  -0.72237
 Alpha  occ. eigenvalues --   -0.70230  -0.68667  -0.68600  -0.67854  -0.64918
 Alpha  occ. eigenvalues --   -0.63564  -0.63031  -0.60557  -0.59360  -0.59039
 Alpha  occ. eigenvalues --   -0.57622  -0.57002  -0.56656  -0.56445  -0.55309
 Alpha  occ. eigenvalues --   -0.55130  -0.52815  -0.51310  -0.50158  -0.49885
 Alpha  occ. eigenvalues --   -0.49574  -0.49003  -0.48583  -0.47554  -0.46983
 Alpha  occ. eigenvalues --   -0.45111  -0.44199  -0.43387  -0.42293  -0.39281
 Alpha  occ. eigenvalues --   -0.39099  -0.38408  -0.38074
 Alpha virt. eigenvalues --   -0.21997  -0.17431  -0.14737  -0.14045  -0.13038
 Alpha virt. eigenvalues --   -0.12626  -0.08325  -0.07351  -0.05219  -0.04881
 Alpha virt. eigenvalues --   -0.03531  -0.02489  -0.02452  -0.00971   0.00957

 Mulliken charges:
               1
     1  O   -0.478934
     2  S    1.203399
     3  N   -0.759346
     4  C    0.531864
     5  N   -0.397597
     6  N    0.030157
     7  C    0.030732
     8  N   -0.334609
     9  C    0.308422
    10  C   -0.155810
    11  C   -0.137123
    12  C   -0.102459
    13  C   -0.136590
    14  C   -0.135003
    15  C   -0.155317
    16  C   -0.143362
    17  C   -0.124482
    18  C   -0.112191
    19  C   -0.125537
    20  C   -0.142474
    21  O   -0.542112
    22  H    0.387648
    23  H    0.247000
    24  H    0.164566
    25  H    0.182410
    26  H    0.184452
    27  H    0.184867
    28  H    0.190745
    29  H    0.198486
    30  H    0.179541
    31  H    0.178291
    32  H    0.173163
    33  H    0.179403
    34  H    0.427802
 Sum of Mulliken charges =   1.00000

 Dipole moment (field-independent basis, Debye):
    X=              6.8837    Y=              3.5254    Z=             -2.3898  Tot=              8.0948
 Quadrupole moment (field-independent basis, Debye-Ang):
   XX=            -76.4988   YY=           -109.8933   ZZ=           -107.3887
   XY=            -10.8014   XZ=              3.6504   YZ=             -1.5203

 Normal termination of Gaussian 16 at Thu Sep 24 15:22:14 2020.
 Gaussian 16:  ES64L-G16RevB.01 20-Dec-2017

 ----------------------------------------------------------------------
 #p mp2/aug-cc-pVDZ scf=(MaxCycle=2000,NoVarAcc,NoIncFock) maxdisk=120G
 B geom=allcheck
 ----------------------------------------------------------------------

 Structure from the checkpoint file:  "SM45_m2.b.3.pdb.xyz.mst.b.w.chk"
 -------------------
 SM45_m2.b.3.pdb.xyz
 -------------------
 Charge =  1 Multiplicity = 1

                         Standard orientation:
 ---------------------------------------------------------------------
 Center     Atomic      Atomic             Coordinates (Angstroms)
 Number     Number       Type             X           Y           Z
 ---------------------------------------------------------------------
      1          8           0       -3.749014   -1.847564   -0.802310
      2         16           0       -2.668416   -1.264079   -0.008514
      3          7           0       -1.260450   -1.535682   -0.966097
      4          6           0       -0.001873   -1.267522   -0.459791
      5          7           0        0.515858   -1.879610    0.640393
      6          7           0        1.749517   -1.509977    0.906613
      7          6           0        1.013171   -0.449513   -0.913029
      8          7           0        2.047106   -0.650026   -0.050670
      9          6           0        3.344327   -0.036776   -0.079148
     10          6           0        3.870725    0.370013   -1.304081
     11          6           0        5.130375    0.965449   -1.324006
     12          6           0        5.846393    1.138309   -0.138030
     13          6           0        5.301094    0.719136    1.077653
     14          6           0        4.039461    0.131137    1.118220
     15          6           0       -2.905243    0.497363    0.103622
     16          6           0       -3.656529    1.141062   -0.882791
     17          6           0       -3.819519    2.522661   -0.799294
     18          6           0       -3.236711    3.234664    0.252622
     19          6           0       -2.491305    2.573240    1.231498
     20          6           0       -2.317872    1.191596    1.164168
     21          8           0       -2.321359   -1.785356    1.316456
     22          1           0       -1.392662   -1.212633   -1.927524
     23          1           0        1.054911    0.235383   -1.741141
     24          1           0        3.321017    0.210329   -2.223508
     25          1           0        5.552372    1.283382   -2.270076
     26          1           0        6.827516    1.598866   -0.160683
     27          1           0        5.852837    0.856860    2.000217
     28          1           0        3.596410   -0.186091    2.053108
     29          1           0       -4.108791    0.571143   -1.684814
     30          1           0       -4.403516    3.040003   -1.551913
     31          1           0       -3.367866    4.309491    0.311666
     32          1           0       -2.048575    3.129622    2.049751
     33          1           0       -1.754822    0.659243    1.920341
     34          1           0        0.065620   -2.564810    1.250299
 ---------------------------------------------------------------------

 SCF Done:  E(RHF) =  -1302.53458736     A.U. after   17 cycles
