 Gaussian 16, Revision B.01,

 ----------------------------------------------------------------------
 #p b3lyp/6-31G(d) opt freq NoSymm scf=(MaxCycle=2000,NoVarAcc,NoIncFoc
 k) scrf=(iefpcm,read,solvent=water)
 ----------------------------------------------------------------------

 -------------------
 SM45_m2.b.5.pdb.xyz
 -------------------
 Symbolic Z-matrix:
 Charge =  1 Multiplicity = 1

 SCF Done:  E(RB3LYP) =  -1308.71028167     A.U. after   13 cycles
 SCF Done:  E(RB3LYP) =  -1308.71602699     A.U. after   11 cycles
 SCF Done:  E(RB3LYP) =  -1308.71794981     A.U. after   10 cycles
 SCF Done:  E(RB3LYP) =  -1308.71811498     A.U. after   10 cycles
 SCF Done:  E(RB3LYP) =  -1308.71817983     A.U. after   10 cycles
 SCF Done:  E(RB3LYP) =  -1308.71819712     A.U. after    9 cycles
 SCF Done:  E(RB3LYP) =  -1308.71821243     A.U. after    9 cycles
 SCF Done:  E(RB3LYP) =  -1308.71821520     A.U. after    9 cycles
 SCF Done:  E(RB3LYP) =  -1308.71821527     A.U. after    8 cycles
 SCF Done:  E(RB3LYP) =  -1308.71821030     A.U. after    9 cycles
 SCF Done:  E(RB3LYP) =  -1308.71829265     A.U. after    9 cycles
 SCF Done:  E(RB3LYP) =  -1308.71827978     A.U. after    9 cycles
 SCF Done:  E(RB3LYP) =  -1308.71829234     A.U. after    9 cycles
 SCF Done:  E(RB3LYP) =  -1308.71828133     A.U. after    9 cycles
 SCF Done:  E(RB3LYP) =  -1308.71829222     A.U. after    9 cycles
 SCF Done:  E(RB3LYP) =  -1308.71829234     A.U. after    7 cycles
 Optimization completed.
    -- Stationary point found.
 Normal termination of Gaussian 16 at Thu Sep 24 15:35:10 2020.

 --------------------------------------------------------------------
 #P Geom=AllCheck Guess=TCheck SCRF=Check GenChk RB3LYP/6-31G(d) Freq
 --------------------------------------------------------------------

 Structure from the checkpoint file:  "SM45_m2.b.5.pdb.xyz.mst.b.w.chk"
 -------------------
 SM45_m2.b.5.pdb.xyz
 -------------------
 Charge =  1 Multiplicity = 1

 SCF Done:  E(RB3LYP) =  -1308.71829234     A.U. after    1 cycles

  Exact polarizability: 303.493  28.639 229.855  42.664 -18.578 239.143
 Approx polarizability: 325.469  36.356 267.166  59.732 -30.359 304.988

                      1                      2                      3
                      A                      A                      A
 Frequencies --     17.0932                24.3455                39.7954
 Red. masses --      5.4317                 5.2734                 4.1557
 Frc consts  --      0.0009                 0.0018                 0.0039
 IR Inten    --      1.5142                 1.1596                 0.9733

                      4                      5                      6
                      A                      A                      A
 Frequencies --     47.6681                78.5785                95.2553
 Red. masses --      4.8865                 6.5409                 4.5682
 Frc consts  --      0.0065                 0.0238                 0.0244
 IR Inten    --      2.0085                 6.8031                 3.6307

                      7                      8                      9
                      A                      A                      A
 Frequencies --    116.9070               131.9745               170.6658
 Red. masses --      6.6018                 5.5967                 6.2390
 Frc consts  --      0.0532                 0.0574                 0.1071
 IR Inten    --      3.2068                12.2337                 1.5851

                     10                     11                     12
                      A                      A                      A
 Frequencies --    228.6101               253.4868               285.7196
 Red. masses --      5.3003                 8.2182                 7.7751
 Frc consts  --      0.1632                 0.3111                 0.3740
 IR Inten    --      0.9764                 1.5080                 1.1785

                     13                     14                     15
                      A                      A                      A
 Frequencies --    290.0275               303.6924               372.6280
 Red. masses --      4.8463                 8.8319                 7.1306
 Frc consts  --      0.2402                 0.4799                 0.5833
 IR Inten    --      5.3598                 6.4692                 1.0455

                     16                     17                     18
                      A                      A                      A
 Frequencies --    405.1494               413.9334               417.3311
 Red. masses --      5.4312                 3.0097                 3.1312
 Frc consts  --      0.5253                 0.3038                 0.3213
 IR Inten    --     11.5965                 0.1617                 0.1933

                     19                     20                     21
                      A                      A                      A
 Frequencies --    419.8852               445.1184               478.2828
 Red. masses --      6.2615                 5.2018                 4.1227
 Frc consts  --      0.6504                 0.6072                 0.5557
 IR Inten    --      3.0084                 6.1280                 5.0572

                     22                     23                     24
                      A                      A                      A
 Frequencies --    531.9161               537.1956               543.4166
 Red. masses --      5.6126                 4.2555                 2.4499
 Frc consts  --      0.9356                 0.7235                 0.4263
 IR Inten    --     90.6128                18.6632               101.6381

                     25                     26                     27
                      A                      A                      A
 Frequencies --    589.6009               624.0521               626.1456
 Red. masses --      6.5832                 6.4559                 6.4340
 Frc consts  --      1.3483                 1.4813                 1.4862
 IR Inten    --    479.1848                 0.0457                 1.2041

                     28                     29                     30
                      A                      A                      A
 Frequencies --    673.6919               693.0581               693.4243
 Red. masses --      3.0785                 3.7106                 2.6438
 Frc consts  --      0.8232                 1.0501                 0.7490
 IR Inten    --      6.3385                15.7909                20.0370

                     31                     32                     33
                      A                      A                      A
 Frequencies --    701.0180               702.2238               723.5885
 Red. masses --      3.2009                 4.2499                 6.6140
 Frc consts  --      0.9268                 1.2347                 2.0403
 IR Inten    --     33.4193                60.7610               104.4921

                     34                     35                     36
                      A                      A                      A
 Frequencies --    738.0080               764.5133               780.4546
 Red. masses --      1.2218                 1.4451                 1.6321
 Frc consts  --      0.3921                 0.4977                 0.5857
 IR Inten    --    150.2479                33.7292                86.5615

                     37                     38                     39
                      A                      A                      A
 Frequencies --    791.2297               823.8049               833.5233
 Red. masses --      2.1796                 2.1571                 3.1953
 Frc consts  --      0.8040                 0.8625                 1.3080
 IR Inten    --     71.2912                 9.7763               156.8134

                     40                     41                     42
                      A                      A                      A
 Frequencies --    851.3318               857.3738               943.9171
 Red. masses --      1.2581                 1.2458                 1.3720
 Frc consts  --      0.5372                 0.5396                 0.7203
 IR Inten    --      0.2988                 0.2658                 6.5696

                     43                     44                     45
                      A                      A                      A
 Frequencies --    950.8275               986.5213               989.2300
 Red. masses --      1.3088                 1.3491                 1.3556
 Frc consts  --      0.6972                 0.7736                 0.7816
 IR Inten    --      0.3667                 0.5806                 0.0648

                     46                     47                     48
                      A                      A                      A
 Frequencies --   1006.6724              1012.4579              1018.2209
 Red. masses --      8.2380                 6.4825                 1.2874
 Frc consts  --      4.9187                 3.9151                 0.7864
 IR Inten    --     24.1983                 7.9465                 0.2203

                     49                     50                     51
                      A                      A                      A
 Frequencies --   1022.6574              1023.0518              1044.4810
 Red. masses --      6.3057                 1.2948                 2.9841
 Frc consts  --      3.8855                 0.7985                 1.9180
 IR Inten    --      1.1834                 0.3332                 9.7823

                     52                     53                     54
                      A                      A                      A
 Frequencies --   1052.6600              1074.2465              1077.9864
 Red. masses --      2.1629                 2.6363                 2.9028
 Frc consts  --      1.4121                 1.7925                 1.9875
 IR Inten    --      5.0151               121.6901                34.2048

                     55                     56                     57
                      A                      A                      A
 Frequencies --   1106.2447              1107.8195              1111.0007
 Red. masses --      1.5060                 2.6249                 1.6460
 Frc consts  --      1.0859                 1.8980                 1.1971
 IR Inten    --     10.1910                26.6317                10.6561

                     58                     59                     60
                      A                      A                      A
 Frequencies --   1132.0609              1192.9694              1194.6208
 Red. masses --      7.2853                 1.1096                 1.1030
 Frc consts  --      5.5009                 0.9304                 0.9275
 IR Inten    --    372.4656                 1.0323                 0.6116

                     61                     62                     63
                      A                      A                      A
 Frequencies --   1199.5943              1199.8846              1216.0352
 Red. masses --      1.1574                 1.1541                 1.8909
 Frc consts  --      0.9813                 0.9790                 1.6474
 IR Inten    --      4.0428                 0.5764                73.5203

                     64                     65                     66
                      A                      A                      A
 Frequencies --   1244.3232              1311.0057              1337.6483
 Red. masses --      2.6832                 8.7861                 1.4360
 Frc consts  --      2.4478                 8.8973                 1.5139
 IR Inten    --      3.8611               224.3136                 0.8425

                     67                     68                     69
                      A                      A                      A
 Frequencies --   1342.0425              1353.2277              1363.6667
 Red. masses --      2.2989                 2.9826                 6.5520
 Frc consts  --      2.4396                 3.2180                 7.1786
 IR Inten    --     19.5162               104.5433                 1.1454

                     70                     71                     72
                      A                      A                      A
 Frequencies --   1368.6312              1398.0437              1407.8682
 Red. masses --      3.5528                 2.1604                 2.9483
 Frc consts  --      3.9209                 2.4878                 3.4430
 IR Inten    --      3.2737                25.1022               112.6513

                     73                     74                     75
                      A                      A                      A
 Frequencies --   1463.8430              1492.3658              1502.1886
 Red. masses --      3.3016                 2.1851                 2.1077
 Frc consts  --      4.1683                 2.8673                 2.8023
 IR Inten    --     14.2379                24.5834                23.3337

                     76                     77                     78
                      A                      A                      A
 Frequencies --   1516.7234              1519.9004              1541.5896
 Red. masses --      2.0689                 2.6168                 2.4460
 Frc consts  --      2.8042                 3.5617                 3.4248
 IR Inten    --      3.4447                18.2621                38.2478

                     79                     80                     81
                      A                      A                      A
 Frequencies --   1637.0087              1642.7270              1644.7030
 Red. masses --      5.4951                 5.8411                 5.4518
 Frc consts  --      8.6762                 9.2870                 8.6889
 IR Inten    --      7.1731                 6.2485               331.7348

                     82                     83                     84
                      A                      A                      A
 Frequencies --   1654.3053              1663.3105              3218.4469
 Red. masses --      5.6755                 6.1316                 1.0870
 Frc consts  --      9.1514                 9.9947                 6.6337
 IR Inten    --     25.5767               107.3101                 1.5688

                     85                     86                     87
                      A                      A                      A
 Frequencies --   3221.7428              3228.9046              3232.4999
 Red. masses --      1.0870                 1.0900                 1.0895
 Frc consts  --      6.6478                 6.6958                 6.7075
 IR Inten    --      0.8833                14.8048                10.4298

                     88                     89                     90
                      A                      A                      A
 Frequencies --   3236.2753              3238.7280              3247.3298
 Red. masses --      1.0940                 1.0933                 1.0966
 Frc consts  --      6.7509                 6.7569                 6.8130
 IR Inten    --     18.9087                27.7537                11.2177

                     91                     92                     93
                      A                      A                      A
 Frequencies --   3249.0392              3250.5793              3257.0654
 Red. masses --      1.0936                 1.0947                 1.0944
 Frc consts  --      6.8016                 6.8150                 6.8406
 IR Inten    --      6.6545                 4.8933                 1.6340

                     94                     95                     96
                      A                      A                      A
 Frequencies --   3352.5002              3506.7443              3530.2091
 Red. masses --      1.1016                 1.0770                 1.0868
 Frc consts  --      7.2950                 7.8032                 7.9799
 IR Inten    --     27.2293               238.4931               539.1597

 - Thermochemistry -
 -------------------
 Temperature   298.150 Kelvin.  Pressure   1.00000 Atm.
 Atom     1 has atomic number  8 and mass  15.99491

 Molecular mass:   301.07592 amu.
 Principal axes and moments of inertia in atomic units:
                           1         2         3
     Eigenvalues --  3369.46360********************
           X            0.99869   0.05053   0.00800
           Y           -0.04987   0.99645  -0.06779
           Z           -0.01140   0.06730   0.99767
 This molecule is an asymmetric top.
 Rotational symmetry number  1.
 Warning -- assumption of classical behavior for rotation
           may cause significant error
 Rotational temperatures (Kelvin)      0.02571     0.00712     0.00627
 Rotational constants (GHZ):           0.53562     0.14837     0.13073
 Zero-point vibrational energy     687578.0 (Joules/Mol)
                                  164.33509 (Kcal/Mol)
 Warning -- explicit consideration of  25 degrees of freedom as
           vibrations may cause significant error
 Vibrational temperatures:     24.59    35.03    57.26    68.58   113.06
          (Kelvin)            137.05   168.20   189.88   245.55   328.92
                              364.71   411.09   417.28   436.95   536.13
                              582.92   595.56   600.45   604.12   640.43
                              688.14   765.31   772.90   781.86   848.30
                              897.87   900.88   969.29   997.16   997.68
                             1008.61  1010.34  1041.08  1061.83  1099.96
                             1122.90  1138.40  1185.27  1199.25  1224.88
                             1233.57  1358.09  1368.03  1419.38  1423.28
                             1448.38  1456.70  1464.99  1471.38  1471.94
                             1502.78  1514.54  1545.60  1550.98  1591.64
                             1593.91  1598.48  1628.78  1716.42  1718.79
                             1725.95  1726.37  1749.60  1790.30  1886.24
                             1924.58  1930.90  1946.99  1962.01  1969.16
                             2011.47  2025.61  2106.14  2147.18  2161.31
                             2182.23  2186.80  2218.00  2355.29  2363.52
                             2366.36  2380.18  2393.13  4630.63  4635.37
                             4645.67  4650.85  4656.28  4659.81  4672.18
                             4674.64  4676.86  4686.19  4823.50  5045.42
                             5079.18

 Zero-point correction=                           0.261885 (Hartree/Particle)
 Thermal correction to Energy=                    0.279147
 Thermal correction to Enthalpy=                  0.280092
 Thermal correction to Gibbs Free Energy=         0.213740
 Sum of electronic and zero-point Energies=          -1308.456408
 Sum of electronic and thermal Energies=             -1308.439145
 Sum of electronic and thermal Enthalpies=           -1308.438201
 Sum of electronic and thermal Free Energies=        -1308.504552

                     E (Thermal)             CV                S
                      KCal/Mol        Cal/Mol-Kelvin    Cal/Mol-Kelvin
 Total                  175.168             67.408            139.649
 Electronic               0.000              0.000              0.000
 Translational            0.889              2.981             43.003
 Rotational               0.889              2.981             34.691
 Vibrational            173.390             61.446             61.954
 Vibration     1          0.593              1.986              6.946
 Vibration     2          0.593              1.985              6.244
 Vibration     3          0.594              1.981              5.269
 Vibration     4          0.595              1.978              4.912
 Vibration     5          0.600              1.964              3.926
 Vibration     6          0.603              1.953              3.549
 Vibration     7          0.608              1.935              3.151
 Vibration     8          0.612              1.921              2.917
 Vibration     9          0.626              1.879              2.428
 Vibration    10          0.651              1.797              1.890
 Vibration    11          0.665              1.757              1.706
 Vibration    12          0.684              1.700              1.499
 Vibration    13          0.686              1.692              1.474
 Vibration    14          0.695              1.667              1.396
 Vibration    15          0.744              1.528              1.069
 Vibration    16          0.770              1.459              0.944
 Vibration    17          0.778              1.440              0.913
 Vibration    18          0.780              1.433              0.901
 Vibration    19          0.783              1.427              0.892
 Vibration    20          0.804              1.372              0.811
 Vibration    21          0.835              1.298              0.715
 Vibration    22          0.887              1.179              0.583
 Vibration    23          0.892              1.168              0.571
 Vibration    24          0.899              1.154              0.558
 Vibration    25          0.947              1.054              0.468

                           ! Non-Optimized Parameters !
 Normal termination of Gaussian 16 at Thu Sep 24 15:47:06 2020.

 ----------------------------------------------------------------------
 #p b3lyp/6-31G(d) scrf=(iefpcm,read,solvent=water) geom=allcheck guess
 =read
 ----------------------------------------------------------------------

 Structure from the checkpoint file:  "SM45_m2.b.5.pdb.xyz.mst.b.w.chk"
 -------------------
 SM45_m2.b.5.pdb.xyz
 -------------------
 Charge =  1 Multiplicity = 1

 SCF Done:  E(RB3LYP) =  -1308.71824433     A.U. after    7 cycles
 Normal termination of Gaussian 16 at Thu Sep 24 15:47:49 2020.

 -----------------------------
 #p B3LYP/6-31G* geom=allcheck
 -----------------------------

 Structure from the checkpoint file:  "SM45_m2.b.5.pdb.xyz.mst.b.w.chk"
 -------------------
 SM45_m2.b.5.pdb.xyz
 -------------------
 Charge =  1 Multiplicity = 1

 SCF Done:  E(RB3LYP) =  -1308.62043172     A.U. after   16 cycles

 The electronic state is 1-A.
 Alpha  occ. eigenvalues --  -89.24883 -19.28066 -19.27368 -14.63933 -14.62236
 Alpha  occ. eigenvalues --  -14.60052 -14.54159 -10.46854 -10.42236 -10.39055
 Alpha  occ. eigenvalues --  -10.35149 -10.34379 -10.33843 -10.32989 -10.32923
 Alpha  occ. eigenvalues --  -10.32783 -10.32745 -10.32647 -10.31854 -10.31777
 Alpha  occ. eigenvalues --  -10.31657  -8.27447  -6.24031  -6.23820  -6.23685
 Alpha  occ. eigenvalues --   -1.32673  -1.24675  -1.15060  -1.13458  -1.10506
 Alpha  occ. eigenvalues --   -1.00507  -1.00357  -0.99003  -0.92720  -0.89862
 Alpha  occ. eigenvalues --   -0.89241  -0.87758  -0.85243  -0.84378  -0.81251
 Alpha  occ. eigenvalues --   -0.76545  -0.75213  -0.74157  -0.73735  -0.72244
 Alpha  occ. eigenvalues --   -0.70231  -0.68657  -0.68576  -0.67837  -0.64908
 Alpha  occ. eigenvalues --   -0.63555  -0.63025  -0.60539  -0.59358  -0.59021
 Alpha  occ. eigenvalues --   -0.57612  -0.56984  -0.56647  -0.56427  -0.55281
 Alpha  occ. eigenvalues --   -0.55092  -0.52815  -0.51275  -0.50142  -0.49878
 Alpha  occ. eigenvalues --   -0.49573  -0.48985  -0.48574  -0.47532  -0.46958
 Alpha  occ. eigenvalues --   -0.45100  -0.44171  -0.43364  -0.42304  -0.39276
 Alpha  occ. eigenvalues --   -0.39097  -0.38385  -0.38053
 Alpha virt. eigenvalues --   -0.21986  -0.17428  -0.14708  -0.14042  -0.13016
 Alpha virt. eigenvalues --   -0.12651  -0.08299  -0.07336  -0.05193  -0.04846
 Alpha virt. eigenvalues --   -0.03538  -0.02488  -0.02453  -0.00934   0.00955

 Mulliken charges:
               1
     1  O   -0.479144
     2  S    1.203342
     3  N   -0.760943
     4  C    0.532184
     5  N   -0.396679
     6  N    0.030361
     7  C    0.031183
     8  N   -0.334455
     9  C    0.307621
    10  C   -0.155618
    11  C   -0.137053
    12  C   -0.102539
    13  C   -0.136608
    14  C   -0.134650
    15  C   -0.155269
    16  C   -0.143048
    17  C   -0.124441
    18  C   -0.112212
    19  C   -0.125414
    20  C   -0.142808
    21  O   -0.542237
    22  H    0.387826
    23  H    0.247062
    24  H    0.164628
    25  H    0.182395
    26  H    0.184422
    27  H    0.184879
    28  H    0.190524
    29  H    0.198851
    30  H    0.179582
    31  H    0.178257
    32  H    0.173061
    33  H    0.179176
    34  H    0.427765
 Sum of Mulliken charges =   1.00000

 Dipole moment (field-independent basis, Debye):
    X=              6.8447    Y=              3.5467    Z=             -2.4144  Tot=              8.0783
 Quadrupole moment (field-independent basis, Debye-Ang):
   XX=            -75.7848   YY=           -109.8844   ZZ=           -107.6275
   XY=            -10.8546   XZ=              3.7738   YZ=             -1.4920

 Normal termination of Gaussian 16 at Thu Sep 24 15:48:46 2020.
 Gaussian 16:  ES64L-G16RevB.01 20-Dec-2017

 ----------------------------------------------------------------------
 #p mp2/aug-cc-pVDZ scf=(MaxCycle=2000,NoVarAcc,NoIncFock) maxdisk=120G
 B geom=allcheck
 ----------------------------------------------------------------------

 Structure from the checkpoint file:  "SM45_m2.b.5.pdb.xyz.mst.b.w.chk"
 -------------------
 SM45_m2.b.5.pdb.xyz
 -------------------
 Charge =  1 Multiplicity = 1

                         Standard orientation:
 ---------------------------------------------------------------------
 Center     Atomic      Atomic             Coordinates (Angstroms)
 Number     Number       Type             X           Y           Z
 ---------------------------------------------------------------------
      1          8           0       -3.735754   -1.865062   -0.793259
      2         16           0       -2.658740   -1.268151   -0.004332
      3          7           0       -1.252896   -1.526135   -0.966570
      4          6           0        0.007707   -1.261666   -0.463077
      5          7           0        0.531326   -1.887209    0.626310
      6          7           0        1.765040   -1.518827    0.893386
      7          6           0        1.018442   -0.434349   -0.908486
      8          7           0        2.056487   -0.643807   -0.052936
      9          6           0        3.352189   -0.028092   -0.078815
     10          6           0        3.876890    0.384486   -1.302560
     11          6           0        5.135812    0.981301   -1.321153
     12          6           0        5.852753    1.149538   -0.135035
     13          6           0        5.309170    0.724569    1.079437
     14          6           0        4.048140    0.135391    1.118734
     15          6           0       -2.915424    0.490910    0.104822
     16          6           0       -3.689344    1.121064   -0.872498
     17          6           0       -3.870046    2.500766   -0.791056
     18          6           0       -3.282057    3.224110    0.249967
     19          6           0       -2.513897    2.576043    1.220393
     20          6           0       -2.322866    1.196888    1.154952
     21          8           0       -2.299797   -1.784486    1.319569
     22          1           0       -1.388255   -1.202570   -1.927408
     23          1           0        1.055432    0.261976   -1.727387
     24          1           0        3.326285    0.227131   -2.221934
     25          1           0        5.556762    1.303424   -2.266261
     26          1           0        6.833465    1.610994   -0.156726
     27          1           0        5.861860    0.858490    2.001976
     28          1           0        3.606391   -0.186841    2.052588
     29          1           0       -4.143756    0.541647   -1.666478
     30          1           0       -4.471845    3.007378   -1.536951
     31          1           0       -3.426845    4.297243    0.307636
     32          1           0       -2.067718    3.140941    2.030892
     33          1           0       -1.744652    0.675308    1.907252
     34          1           0        0.082624   -2.582232    1.226552
 ---------------------------------------------------------------------

 SCF Done:  E(RHF) =  -1302.53462816     A.U. after   17 cycles
