 Gaussian 16, Revision B.01,

 ----------------------------------------------------------------------
 #p b3lyp/6-31G(d) opt freq NoSymm scf=(MaxCycle=2000,NoVarAcc,NoIncFoc
 k) scrf=(iefpcm,read,solvent=water)
 ----------------------------------------------------------------------

 -------------------
 SM45_m2.b.1.pdb.xyz
 -------------------
 Symbolic Z-matrix:
 Charge =  1 Multiplicity = 1

 SCF Done:  E(RB3LYP) =  -1308.70773186     A.U. after   13 cycles
 SCF Done:  E(RB3LYP) =  -1308.71328583     A.U. after   11 cycles
 SCF Done:  E(RB3LYP) =  -1308.71514007     A.U. after   10 cycles
 SCF Done:  E(RB3LYP) =  -1308.71525002     A.U. after   10 cycles
 SCF Done:  E(RB3LYP) =  -1308.71534172     A.U. after   10 cycles
 SCF Done:  E(RB3LYP) =  -1308.71540162     A.U. after   10 cycles
 SCF Done:  E(RB3LYP) =  -1308.71551788     A.U. after   10 cycles
 SCF Done:  E(RB3LYP) =  -1308.71561067     A.U. after   14 cycles
 SCF Done:  E(RB3LYP) =  -1308.71573798     A.U. after   11 cycles
 SCF Done:  E(RB3LYP) =  -1308.71571013     A.U. after   13 cycles
 SCF Done:  E(RB3LYP) =  -1308.71588479     A.U. after    9 cycles
 SCF Done:  E(RB3LYP) =  -1308.71592121     A.U. after    9 cycles
 SCF Done:  E(RB3LYP) =  -1308.71590010     A.U. after    9 cycles
 SCF Done:  E(RB3LYP) =  -1308.71590701     A.U. after    8 cycles
 SCF Done:  E(RB3LYP) =  -1308.71589262     A.U. after    8 cycles
 SCF Done:  E(RB3LYP) =  -1308.71589229     A.U. after    7 cycles
 Optimization completed.
    -- Stationary point found.
 Normal termination of Gaussian 16 at Thu Sep 24 15:28:18 2020.

 --------------------------------------------------------------------
 #P Geom=AllCheck Guess=TCheck SCRF=Check GenChk RB3LYP/6-31G(d) Freq
 --------------------------------------------------------------------

 Structure from the checkpoint file:  "SM45_m2.b.1.pdb.xyz.mst.b.w.chk"
 -------------------
 SM45_m2.b.1.pdb.xyz
 -------------------
 Charge =  1 Multiplicity = 1

 SCF Done:  E(RB3LYP) =  -1308.71589229     A.U. after    1 cycles

  Exact polarizability: 310.036 -15.638 284.964 -32.433  40.900 172.467
 Approx polarizability: 340.253 -18.847 336.751 -40.696  53.851 214.699

                      1                      2                      3
                      A                      A                      A
 Frequencies --     17.6187                30.8412                45.8144
 Red. masses --      5.9747                 4.5989                 5.8490
 Frc consts  --      0.0011                 0.0026                 0.0072
 IR Inten    --      1.6943                 1.1159                 3.2436

                      4                      5                      6
                      A                      A                      A
 Frequencies --     53.0962                68.4871                84.3648
 Red. masses --      4.0032                 5.7096                 5.1708
 Frc consts  --      0.0066                 0.0158                 0.0217
 IR Inten    --      0.1294                 1.9962                 0.9135

                      7                      8                      9
                      A                      A                      A
 Frequencies --    113.1765               148.9990               178.6158
 Red. masses --      6.2215                 5.0985                 6.3822
 Frc consts  --      0.0470                 0.0667                 0.1200
 IR Inten    --      6.4308                 4.1532                 2.2279

                     10                     11                     12
                      A                      A                      A
 Frequencies --    234.8981               256.5624               263.7984
 Red. masses --      5.3567                 8.2907                 5.7287
 Frc consts  --      0.1741                 0.3215                 0.2349
 IR Inten    --      1.8573                 2.1094                 0.5873

                     13                     14                     15
                      A                      A                      A
 Frequencies --    309.4740               323.8382               357.3068
 Red. masses --      8.6782                 6.9562                 3.3618
 Frc consts  --      0.4897                 0.4298                 0.2529
 IR Inten    --      4.5697                 2.2447                36.4631

                     16                     17                     18
                      A                      A                      A
 Frequencies --    381.4286               412.7708               416.1096
 Red. masses --      2.6758                 5.8580                 3.3325
 Frc consts  --      0.2294                 0.5881                 0.3400
 IR Inten    --     34.1130                13.2341                 0.5492

                     19                     20                     21
                      A                      A                      A
 Frequencies --    418.6987               425.0879               461.6852
 Red. masses --      3.0954                 5.1898                 3.3549
 Frc consts  --      0.3197                 0.5525                 0.4213
 IR Inten    --      5.6877                37.0529                61.4628

                     22                     23                     24
                      A                      A                      A
 Frequencies --    472.5933               535.3271               542.8272
 Red. masses --      4.3186                 3.7667                11.3675
 Frc consts  --      0.5683                 0.6360                 1.9735
 IR Inten    --      4.3067                26.4973               165.1983

                     25                     26                     27
                      A                      A                      A
 Frequencies --    560.8283               624.9308               626.4725
 Red. masses --      7.1416                 6.4317                 6.2798
 Frc consts  --      1.3234                 1.4799                 1.4521
 IR Inten    --    262.9840                 0.1115                 0.6211

                     28                     29                     30
                      A                      A                      A
 Frequencies --    645.1713               661.7061               696.2174
 Red. masses --      1.3187                 3.8122                 3.5807
 Frc consts  --      0.3234                 0.9835                 1.0226
 IR Inten    --    133.1597                46.0062                15.5726

                     31                     32                     33
                      A                      A                      A
 Frequencies --    697.6130               699.9299               703.6849
 Red. masses --      3.0274                 2.8899                 3.2095
 Frc consts  --      0.8681                 0.8341                 0.9364
 IR Inten    --     71.5632                46.1525                 0.8288

                     34                     35                     36
                      A                      A                      A
 Frequencies --    718.7083               766.4778               781.3741
 Red. masses --      6.2232                 1.4317                 1.6223
 Frc consts  --      1.8939                 0.4956                 0.5836
 IR Inten    --     29.2286                39.5732                74.6905

                     37                     38                     39
                      A                      A                      A
 Frequencies --    798.2994               810.6077               841.3000
 Red. masses --      2.2264                 2.3436                 4.3767
 Frc consts  --      0.8360                 0.9073                 1.8252
 IR Inten    --    185.2822                10.9687               296.0538

                     40                     41                     42
                      A                      A                      A
 Frequencies --    854.4551               861.1651               946.7183
 Red. masses --      1.2657                 1.2460                 1.3708
 Frc consts  --      0.5444                 0.5444                 0.7239
 IR Inten    --      1.8269                 0.3763                 7.0708

                     43                     44                     45
                      A                      A                      A
 Frequencies --    951.8269               988.2470               993.0266
 Red. masses --      1.3029                 1.3481                 1.3535
 Frc consts  --      0.6955                 0.7757                 0.7864
 IR Inten    --      0.9264                 0.6058                 0.2472

                     46                     47                     48
                      A                      A                      A
 Frequencies --   1008.8500              1013.3788              1018.5639
 Red. masses --      8.2073                 6.5202                 1.2885
 Frc consts  --      4.9216                 3.9451                 0.7876
 IR Inten    --     21.5987                 7.4757                 0.2337

                     49                     50                     51
                      A                      A                      A
 Frequencies --   1022.9575              1024.2518              1047.6957
 Red. masses --      6.3178                 1.2914                 3.2789
 Frc consts  --      3.8952                 0.7982                 2.1205
 IR Inten    --      1.2753                 0.0888                12.9527

                     52                     53                     54
                      A                      A                      A
 Frequencies --   1056.3581              1079.8494              1087.3894
 Red. masses --      2.2010                 3.2429                 3.0144
 Frc consts  --      1.4471                 2.2280                 2.1000
 IR Inten    --      4.0149               142.8013                16.4352

                     55                     56                     57
                      A                      A                      A
 Frequencies --   1113.1333              1116.6617              1119.6567
 Red. masses --      1.5574                 1.6277                 2.5766
 Frc consts  --      1.1370                 1.1958                 1.9031
 IR Inten    --      9.9424                36.4118                16.3892

                     58                     59                     60
                      A                      A                      A
 Frequencies --   1133.9422              1197.1239              1197.1846
 Red. masses --      6.0555                 1.0977                 1.1065
 Frc consts  --      4.5876                 0.9269                 0.9344
 IR Inten    --    311.6262                 0.2846                 0.7408

                     61                     62                     63
                      A                      A                      A
 Frequencies --   1205.8159              1211.1036              1217.0941
 Red. masses --      1.2768                 1.1639                 1.9157
 Frc consts  --      1.0938                 1.0059                 1.6720
 IR Inten    --     10.7791                 0.3044                34.7897

                     64                     65                     66
                      A                      A                      A
 Frequencies --   1266.6561              1299.8491              1334.8386
 Red. masses --      1.9937                 5.1434                 3.9224
 Frc consts  --      1.8847                 5.1202                 4.1177
 IR Inten    --     13.4176               189.3663               165.5354

                     67                     68                     69
                      A                      A                      A
 Frequencies --   1346.0207              1349.1493              1364.9590
 Red. masses --      1.4534                 2.1394                 5.2888
 Frc consts  --      1.5515                 2.2944                 5.8056
 IR Inten    --      4.8202                 3.1692                 1.8068

                     70                     71                     72
                      A                      A                      A
 Frequencies --   1370.2930              1396.8168              1422.9955
 Red. masses --      3.3652                 2.4980                 2.2288
 Frc consts  --      3.7230                 2.8716                 2.6591
 IR Inten    --      3.8528                 3.2546                90.1589

                     73                     74                     75
                      A                      A                      A
 Frequencies --   1466.1217              1493.7595              1501.0933
 Red. masses --      3.3627                 2.1755                 2.2608
 Frc consts  --      4.2587                 2.8600                 3.0014
 IR Inten    --     10.0559                20.8131                46.6521

                     76                     77                     78
                      A                      A                      A
 Frequencies --   1523.3459              1524.2340              1544.9416
 Red. masses --      2.0582                 2.6955                 2.4121
 Frc consts  --      2.8140                 3.6897                 3.3921
 IR Inten    --      9.8613               106.3748                31.8618

                     79                     80                     81
                      A                      A                      A
 Frequencies --   1640.6476              1644.2637              1650.3940
 Red. masses --      5.3516                 5.8649                 5.7281
 Frc consts  --      8.4872                 9.3422                 9.1926
 IR Inten    --      6.9203                 6.3715               241.0653

                     82                     83                     84
                      A                      A                      A
 Frequencies --   1655.1420              1666.6336              3219.9581
 Red. masses --      5.6601                 5.7990                 1.0871
 Frc consts  --      9.1357                 9.4903                 6.6405
 IR Inten    --     59.8085               259.2682                 2.0892

                     85                     86                     87
                      A                      A                      A
 Frequencies --   3221.8138              3230.0193              3231.3828
 Red. masses --      1.0867                 1.0901                 1.0896
 Frc consts  --      6.6460                 6.7006                 6.7031
 IR Inten    --      0.0054                13.2496                13.1421

                     88                     89                     90
                      A                      A                      A
 Frequencies --   3237.2500              3238.8359              3246.2318
 Red. masses --      1.0932                 1.0936                 1.0961
 Frc consts  --      6.7498                 6.7589                 6.8057
 IR Inten    --     17.5321                28.7234                 8.4457

                     91                     92                     93
                      A                      A                      A
 Frequencies --   3247.3102              3253.6756              3255.1934
 Red. masses --      1.0957                 1.0939                 1.0942
 Frc consts  --      6.8073                 6.8229                 6.8316
 IR Inten    --     11.4700                 4.8945                 1.5198

                     94                     95                     96
                      A                      A                      A
 Frequencies --   3361.9409              3506.6751              3543.3468
 Red. masses --      1.1010                 1.0770                 1.0870
 Frc consts  --      7.3322                 7.8029                 8.0410
 IR Inten    --     25.4715               252.7518               617.2982

 - Thermochemistry -
 -------------------
 Temperature   298.150 Kelvin.  Pressure   1.00000 Atm.
 Atom     1 has atomic number  8 and mass  15.99491

 Molecular mass:   301.07592 amu.
 Principal axes and moments of inertia in atomic units:
                           1         2         3
     Eigenvalues --  3448.74522********************
           X            0.99574  -0.08953   0.02222
           Y            0.09015   0.99551  -0.02869
           Z           -0.01955   0.03057   0.99934
 This molecule is an asymmetric top.
 Rotational symmetry number  1.
 Warning -- assumption of classical behavior for rotation
           may cause significant error
 Rotational temperatures (Kelvin)      0.02511     0.00726     0.00617
 Rotational constants (GHZ):           0.52330     0.15133     0.12858
 Zero-point vibrational energy     687308.3 (Joules/Mol)
                                  164.27063 (Kcal/Mol)
 Warning -- explicit consideration of  25 degrees of freedom as
           vibrations may cause significant error
 Vibrational temperatures:     25.35    44.37    65.92    76.39    98.54
          (Kelvin)            121.38   162.84   214.38   256.99   337.97
                              369.14   379.55   445.26   465.93   514.08
                              548.79   593.89   598.69   602.41   611.61
                              664.26   679.96   770.22   781.01   806.91
                              899.14   901.35   928.26   952.05  1001.70
                             1003.71  1007.04  1012.45  1034.06  1102.79
                             1124.22  1148.57  1166.28  1210.44  1229.37
                             1239.02  1362.12  1369.47  1421.87  1428.74
                             1451.51  1458.03  1465.49  1471.81  1473.67
                             1507.40  1519.86  1553.66  1564.51  1601.55
                             1606.63  1610.94  1631.49  1722.39  1722.48
                             1734.90  1742.51  1751.13  1822.44  1870.19
                             1920.54  1936.62  1941.12  1963.87  1971.55
                             2009.71  2047.37  2109.42  2149.19  2159.74
                             2191.75  2193.03  2222.83  2360.53  2365.73
                             2374.55  2381.38  2397.91  4632.80  4635.47
                             4647.28  4649.24  4657.68  4659.96  4670.60
                             4672.16  4681.31  4683.50  4837.08  5045.32
                             5098.09

 Zero-point correction=                           0.261782 (Hartree/Particle)
 Thermal correction to Energy=                    0.279143
 Thermal correction to Enthalpy=                  0.280087
 Thermal correction to Gibbs Free Energy=         0.213888
 Sum of electronic and zero-point Energies=          -1308.454110
 Sum of electronic and thermal Energies=             -1308.436750
 Sum of electronic and thermal Enthalpies=           -1308.435806
 Sum of electronic and thermal Free Energies=        -1308.502004

                     E (Thermal)             CV                S
                      KCal/Mol        Cal/Mol-Kelvin    Cal/Mol-Kelvin
 Total                  175.165             67.794            139.327
 Electronic               0.000              0.000              0.000
 Translational            0.889              2.981             43.003
 Rotational               0.889              2.981             34.711
 Vibrational            173.387             61.832             61.613
 Vibration     1          0.593              1.986              6.886
 Vibration     2          0.594              1.984              5.775
 Vibration     3          0.595              1.979              4.990
 Vibration     4          0.596              1.976              4.699
 Vibration     5          0.598              1.969              4.196
 Vibration     6          0.601              1.960              3.787
 Vibration     7          0.607              1.939              3.214
 Vibration     8          0.618              1.904              2.685
 Vibration     9          0.629              1.869              2.343
 Vibration    10          0.655              1.787              1.841
 Vibration    11          0.666              1.752              1.685
 Vibration    12          0.670              1.739              1.636
 Vibration    13          0.699              1.656              1.365
 Vibration    14          0.708              1.628              1.291
 Vibration    15          0.732              1.560              1.134
 Vibration    16          0.751              1.510              1.033
 Vibration    17          0.777              1.443              0.917
 Vibration    18          0.779              1.435              0.905
 Vibration    19          0.782              1.430              0.896
 Vibration    20          0.787              1.416              0.875
 Vibration    21          0.819              1.335              0.761
 Vibration    22          0.829              1.311              0.730
 Vibration    23          0.890              1.172              0.575
 Vibration    24          0.898              1.155              0.559
 Vibration    25          0.916              1.116              0.522

                           ! Non-Optimized Parameters !
 Normal termination of Gaussian 16 at Thu Sep 24 15:40:51 2020.

 ----------------------------------------------------------------------
 #p b3lyp/6-31G(d) scrf=(iefpcm,read,solvent=water) geom=allcheck guess
 =read
 ----------------------------------------------------------------------

 Structure from the checkpoint file:  "SM45_m2.b.1.pdb.xyz.mst.b.w.chk"
 -------------------
 SM45_m2.b.1.pdb.xyz
 -------------------
 Charge =  1 Multiplicity = 1

 SCF Done:  E(RB3LYP) =  -1308.71590825     A.U. after    7 cycles
 Normal termination of Gaussian 16 at Thu Sep 24 15:41:39 2020.

 -----------------------------
 #p B3LYP/6-31G* geom=allcheck
 -----------------------------

 Structure from the checkpoint file:  "SM45_m2.b.1.pdb.xyz.mst.b.w.chk"
 -------------------
 SM45_m2.b.1.pdb.xyz
 -------------------
 Charge =  1 Multiplicity = 1

 SCF Done:  E(RB3LYP) =  -1308.61479809     A.U. after   16 cycles

 The electronic state is 1-A.
 Alpha  occ. eigenvalues --  -89.24727 -19.27766 -19.27389 -14.63816 -14.62600
 Alpha  occ. eigenvalues --  -14.59721 -14.54123 -10.46916 -10.41713 -10.38809
 Alpha  occ. eigenvalues --  -10.34633 -10.34122 -10.33612 -10.32682 -10.32519
 Alpha  occ. eigenvalues --  -10.32440 -10.32429 -10.32320 -10.31337 -10.31274
 Alpha  occ. eigenvalues --  -10.31159  -8.27290  -6.23893  -6.23661  -6.23510
 Alpha  occ. eigenvalues --   -1.32610  -1.24480  -1.15301  -1.13272  -1.10339
 Alpha  occ. eigenvalues --   -1.00321  -1.00186  -0.98536  -0.92744  -0.89616
 Alpha  occ. eigenvalues --   -0.88951  -0.87264  -0.85285  -0.84434  -0.80156
 Alpha  occ. eigenvalues --   -0.77705  -0.75106  -0.74150  -0.73213  -0.72534
 Alpha  occ. eigenvalues --   -0.69219  -0.68720  -0.68363  -0.66990  -0.64437
 Alpha  occ. eigenvalues --   -0.63225  -0.62734  -0.60185  -0.59184  -0.58608
 Alpha  occ. eigenvalues --   -0.57359  -0.56677  -0.56389  -0.56112  -0.55322
 Alpha  occ. eigenvalues --   -0.54772  -0.53062  -0.51201  -0.49661  -0.49495
 Alpha  occ. eigenvalues --   -0.49357  -0.48520  -0.48357  -0.47439  -0.47050
 Alpha  occ. eigenvalues --   -0.44635  -0.43810  -0.43179  -0.41629  -0.39018
 Alpha  occ. eigenvalues --   -0.38819  -0.37925  -0.37504
 Alpha virt. eigenvalues --   -0.21813  -0.16103  -0.15062  -0.13837  -0.12588
 Alpha virt. eigenvalues --   -0.12356  -0.10026  -0.07573  -0.05904  -0.04868
 Alpha virt. eigenvalues --   -0.03301  -0.02836  -0.01316  -0.00873   0.00529

 Mulliken charges:
               1
     1  O   -0.506857
     2  S    1.222272
     3  N   -0.814581
     4  C    0.585876
     5  N   -0.442165
     6  N    0.025727
     7  C    0.063836
     8  N   -0.336557
     9  C    0.309231
    10  C   -0.154818
    11  C   -0.137183
    12  C   -0.102089
    13  C   -0.136461
    14  C   -0.134161
    15  C   -0.152427
    16  C   -0.152875
    17  C   -0.124920
    18  C   -0.111005
    19  C   -0.125148
    20  C   -0.126020
    21  O   -0.500481
    22  H    0.387801
    23  H    0.248762
    24  H    0.168333
    25  H    0.181478
    26  H    0.183775
    27  H    0.184204
    28  H    0.189952
    29  H    0.185431
    30  H    0.171262
    31  H    0.176828
    32  H    0.177334
    33  H    0.186799
    34  H    0.408849
 Sum of Mulliken charges =   1.00000

 Dipole moment (field-independent basis, Debye):
    X=             -5.5430    Y=              0.3310    Z=             -4.5513  Tot=              7.1797
 Quadrupole moment (field-independent basis, Debye-Ang):
   XX=            -69.0801   YY=            -88.4853   ZZ=           -123.8976
   XY=              6.9964   XZ=             -9.8638   YZ=             13.0840

 Normal termination of Gaussian 16 at Thu Sep 24 15:42:42 2020.
 Gaussian 16:  ES64L-G16RevB.01 20-Dec-2017

 ----------------------------------------------------------------------
 #p mp2/aug-cc-pVDZ scf=(MaxCycle=2000,NoVarAcc,NoIncFock) maxdisk=120G
 B geom=allcheck
 ----------------------------------------------------------------------

 Structure from the checkpoint file:  "SM45_m2.b.1.pdb.xyz.mst.b.w.chk"
 -------------------
 SM45_m2.b.1.pdb.xyz
 -------------------
 Charge =  1 Multiplicity = 1

                         Standard orientation:
 ---------------------------------------------------------------------
 Center     Atomic      Atomic             Coordinates (Angstroms)
 Number     Number       Type             X           Y           Z
 ---------------------------------------------------------------------
      1          8           0        1.567928   -0.912657    1.908374
      2         16           0        2.338068   -1.146444    0.684230
      3          7           0        1.251429   -1.665432   -0.547227
      4          6           0       -0.104286   -1.452019   -0.442250
      5          7           0       -1.032421   -2.436112   -0.579742
      6          7           0       -2.272780   -2.001566   -0.485308
      7          6           0       -0.844250   -0.304209   -0.233079
      8          7           0       -2.143576   -0.708388   -0.260704
      9          6           0       -3.314539    0.103659   -0.098265
     10          6           0       -3.229471    1.267026    0.665442
     11          6           0       -4.371762    2.051351    0.815657
     12          6           0       -5.573789    1.666963    0.218548
     13          6           0       -5.637625    0.494513   -0.538332
     14          6           0       -4.503874   -0.296241   -0.707837
     15          6           0        2.951101    0.417271    0.092339
     16          6           0        2.516332    1.586525    0.717069
     17          6           0        3.008352    2.809809    0.260712
     18          6           0        3.918046    2.846268   -0.797643
     19          6           0        4.347313    1.663112   -1.406015
     20          6           0        3.867087    0.433332   -0.963030
     21          8           0        3.408424   -2.145369    0.637585
     22          1           0        1.529198   -2.574851   -0.920888
     23          1           0       -0.547892    0.720990   -0.104103
     24          1           0       -2.300039    1.547183    1.145784
     25          1           0       -4.320143    2.957257    1.408455
     26          1           0       -6.459367    2.279880    0.342322
     27          1           0       -6.568404    0.196540   -1.007081
     28          1           0       -4.531591   -1.199921   -1.302765
     29          1           0        1.817549    1.532571    1.542135
     30          1           0        2.682939    3.728781    0.734751
     31          1           0        4.297897    3.799304   -1.148811
     32          1           0        5.058619    1.697258   -2.223179
     33          1           0        4.199178   -0.489801   -1.422352
     34          1           0       -0.868205   -3.431561   -0.748651
 ---------------------------------------------------------------------

 SCF Done:  E(RHF) =  -1302.52711175     A.U. after   17 cycles
