 Gaussian 16, Revision B.01,

 ----------------------------------------------------------------------
 #p b3lyp/6-31G(d) opt freq NoSymm scf=(MaxCycle=2000,NoVarAcc,NoIncFoc
 k) scrf=(iefpcm,read,solvent=water)
 ----------------------------------------------------------------------

 -------------------
 SM45_m0.n.9.pdb.xyz
 -------------------
 Symbolic Z-matrix:
 Charge =  0 Multiplicity = 1

 SCF Done:  E(RB3LYP) =  -1308.27057242     A.U. after   13 cycles
 SCF Done:  E(RB3LYP) =  -1308.27057954     A.U. after    8 cycles
 SCF Done:  E(RB3LYP) =  -1308.27057845     A.U. after    8 cycles
 SCF Done:  E(RB3LYP) =  -1308.27057963     A.U. after    7 cycles
 Optimization completed.
    -- Stationary point found.
 Normal termination of Gaussian 16 at Thu Sep 24 14:45:00 2020.

 --------------------------------------------------------------------
 #P Geom=AllCheck Guess=TCheck SCRF=Check GenChk RB3LYP/6-31G(d) Freq
 --------------------------------------------------------------------

 Structure from the checkpoint file:  "SM45_m0.n.9.pdb.xyz.mst.n.w.chk"
 -------------------
 SM45_m0.n.9.pdb.xyz
 -------------------
 Charge =  0 Multiplicity = 1

 SCF Done:  E(RB3LYP) =  -1308.27057963     A.U. after    1 cycles

  Exact polarizability: 276.889 -26.403 295.968 -56.854 -21.407 189.977
 Approx polarizability: 304.904 -28.924 348.156 -74.834 -29.670 238.873

                      1                      2                      3
                      A                      A                      A
 Frequencies --     14.7793                26.0321                28.1858
 Red. masses --      5.7332                 4.8305                 4.0675
 Frc consts  --      0.0007                 0.0019                 0.0019
 IR Inten    --      2.7164                 0.3658                 0.1195

                      4                      5                      6
                      A                      A                      A
 Frequencies --     38.2098                67.7390                86.3252
 Red. masses --      5.7658                 6.3605                 6.3346
 Frc consts  --      0.0050                 0.0172                 0.0278
 IR Inten    --      1.1718                11.0276                 0.8084

                      7                      8                      9
                      A                      A                      A
 Frequencies --    109.6068               145.8013               180.2110
 Red. masses --      6.9294                 5.1042                 6.3318
 Frc consts  --      0.0490                 0.0639                 0.1212
 IR Inten    --      2.1527                 3.0973                 3.1791

                     10                     11                     12
                      A                      A                      A
 Frequencies --    230.6045               260.5873               266.2161
 Red. masses --      5.3800                 9.7958                 6.6271
 Frc consts  --      0.1686                 0.3919                 0.2767
 IR Inten    --      3.0093                 0.9016                 7.7683

                     13                     14                     15
                      A                      A                      A
 Frequencies --    308.4034               330.4708               364.6004
 Red. masses --      8.6862                 6.1790                 4.9560
 Frc consts  --      0.4868                 0.3976                 0.3882
 IR Inten    --      6.7631                 2.9291                 7.5123

                     16                     17                     18
                      A                      A                      A
 Frequencies --    386.9082               414.0546               418.1603
 Red. masses --      3.6444                 2.9567                 3.6317
 Frc consts  --      0.3214                 0.2987                 0.3741
 IR Inten    --     23.8849                 0.1776                 0.8976

                     19                     20                     21
                      A                      A                      A
 Frequencies --    421.1128               443.3613               484.3931
 Red. masses --      5.8616                 5.1323                 2.6587
 Frc consts  --      0.6124                 0.5944                 0.3675
 IR Inten    --      3.5646                16.1536                81.3941

                     22                     23                     24
                      A                      A                      A
 Frequencies --    516.5774               533.3729               553.2778
 Red. masses --      5.2247                 3.8983                 7.4435
 Frc consts  --      0.8215                 0.6534                 1.3425
 IR Inten    --     92.2141                 9.3133               170.5312

                     25                     26                     27
                      A                      A                      A
 Frequencies --    574.0583               625.5834               627.8943
 Red. masses --      6.7937                 6.4507                 6.3924
 Frc consts  --      1.3191                 1.4874                 1.4849
 IR Inten    --    215.2025                 0.3691                 0.5193

                     28                     29                     30
                      A                      A                      A
 Frequencies --    665.6661               695.2378               697.7017
 Red. masses --      3.4737                 5.3689                 2.5044
 Frc consts  --      0.9069                 1.5290                 0.7183
 IR Inten    --      8.9074                14.0465                43.3949

                     31                     32                     33
                      A                      A                      A
 Frequencies --    704.8743               711.0613               722.5754
 Red. masses --      2.4531                 6.2230                 6.6700
 Frc consts  --      0.7181                 1.8538                 2.0518
 IR Inten    --     30.3133                10.1858                47.1689

                     34                     35                     36
                      A                      A                      A
 Frequencies --    764.7228               778.3073               804.8886
 Red. masses --      1.4871                 1.6234                 1.9143
 Frc consts  --      0.5124                 0.5794                 0.7307
 IR Inten    --     35.0328                69.4632                26.3924

                     37                     38                     39
                      A                      A                      A
 Frequencies --    823.1774               854.8141               858.5277
 Red. masses --      2.8978                 1.2507                 1.2493
 Frc consts  --      1.1569                 0.5384                 0.5425
 IR Inten    --     10.6195                 0.2512                 0.6478

                     40                     41                     42
                      A                      A                      A
 Frequencies --    877.2461               937.3405               946.5450
 Red. masses --      3.3643                 1.3911                 1.3069
 Frc consts  --      1.5254                 0.7201                 0.6899
 IR Inten    --    235.9023                 6.2082                 0.7574

                     43                     44                     45
                      A                      A                      A
 Frequencies --    982.8216               989.5949              1006.2209
 Red. masses --      1.3448                 1.3573                 7.6691
 Frc consts  --      0.7653                 0.7831                 4.5749
 IR Inten    --      0.2419                 0.2095                33.3805

                     46                     47                     48
                      A                      A                      A
 Frequencies --   1010.7538              1013.9096              1020.2109
 Red. masses --      1.2705                 6.4629                 6.1528
 Frc consts  --      0.7647                 3.9145                 3.7731
 IR Inten    --      0.2975                 7.0622                 0.9133

                     49                     50                     51
                      A                      A                      A
 Frequencies --   1021.9525              1047.4982              1048.4024
 Red. masses --      1.2893                 3.1131                 3.1599
 Frc consts  --      0.7933                 2.0125                 2.0463
 IR Inten    --      0.0418                16.4718                 5.7669

                     52                     53                     54
                      A                      A                      A
 Frequencies --   1063.8009              1065.8829              1081.2216
 Red. masses --      2.1720                 4.0247                 3.8610
 Frc consts  --      1.4482                 2.6940                 2.6594
 IR Inten    --    138.2407                29.6794               104.0000

                     55                     56                     57
                      A                      A                      A
 Frequencies --   1107.9619              1109.6772              1129.4168
 Red. masses --      1.5448                 1.5540                 4.7299
 Frc consts  --      1.1173                 1.1274                 3.5547
 IR Inten    --     11.6228                12.8676               281.3674

                     58                     59                     60
                      A                      A                      A
 Frequencies --   1189.7283              1195.6667              1197.8822
 Red. masses --      1.1061                 1.0998                 1.1769
 Frc consts  --      0.9224                 0.9264                 0.9950
 IR Inten    --      0.2063                 0.4338                 0.4395

                     61                     62                     63
                      A                      A                      A
 Frequencies --   1205.3990              1227.2050              1239.8222
 Red. masses --      1.1650                 4.1707                 1.9859
 Frc consts  --      0.9973                 3.7008                 1.7986
 IR Inten    --      0.5156                20.9175                 5.8096

                     64                     65                     66
                      A                      A                      A
 Frequencies --   1278.5108              1292.2388              1327.8988
 Red. masses --      8.1277                10.1290                 2.7109
 Frc consts  --      7.8276                 9.9656                 2.8164
 IR Inten    --    341.8905                55.6335                61.6057

                     67                     68                     69
                      A                      A                      A
 Frequencies --   1343.9787              1363.5382              1365.1191
 Red. masses --      1.4388                 5.5660                 2.9871
 Frc consts  --      1.5312                 6.0972                 3.2798
 IR Inten    --      1.7766                 4.1876                 1.6762

                     70                     71                     72
                      A                      A                      A
 Frequencies --   1366.9772              1435.1056              1479.1243
 Red. masses --      2.0328                 2.3299                 2.9575
 Frc consts  --      2.2380                 2.8272                 3.8122
 IR Inten    --      8.4621               178.7775                 2.0637

                     73                     74                     75
                      A                      A                      A
 Frequencies --   1493.0443              1514.0123              1523.8947
 Red. masses --      2.1663                 2.5953                 2.0531
 Frc consts  --      2.8452                 3.5051                 2.8091
 IR Inten    --     24.5975                21.0427                 3.4576

                     76                     77                     78
                      A                      A                      A
 Frequencies --   1549.6831              1605.2326              1641.8501
 Red. masses --      2.7873                 6.2608                 5.4646
 Frc consts  --      3.9439                 9.5051                 8.6792
 IR Inten    --    105.6874                66.4528                 5.3709

                     79                     80                     81
                      A                      A                      A
 Frequencies --   1644.6017              1654.9048              1657.4504
 Red. masses --      5.8427                 6.3901                 5.7338
 Frc consts  --      9.3108                10.3111                 9.2805
 IR Inten    --      0.2974                 7.1451                25.3481

                     82                     83                     84
                      A                      A                      A
 Frequencies --   3213.2580              3218.0983              3222.2045
 Red. masses --      1.0864                 1.0867                 1.0897
 Frc consts  --      6.6086                 6.6306                 6.6659
 IR Inten    --      0.1576                 1.2320                15.4891

                     85                     86                     87
                      A                      A                      A
 Frequencies --   3228.0588              3230.2919              3235.5514
 Red. masses --      1.0895                 1.0934                 1.0933
 Frc consts  --      6.6891                 6.7225                 6.7435
 IR Inten    --     14.3701                39.5300                21.8367

                     88                     89                     90
                      A                      A                      A
 Frequencies --   3238.4560              3242.9179              3252.0388
 Red. masses --      1.0965                 1.0957                 1.0938
 Frc consts  --      6.7752                 6.7890                 6.8157
 IR Inten    --     14.8751                12.3262                 5.9955

                     91                     92                     93
                      A                      A                      A
 Frequencies --   3254.8071              3340.7568              3498.2609
 Red. masses --      1.0934                 1.1006                 1.0753
 Frc consts  --      6.8244                 7.2370                 7.7529
 IR Inten    --      2.0848                 7.9007               191.7430

 - Thermochemistry -
 -------------------
 Temperature   298.150 Kelvin.  Pressure   1.00000 Atm.
 Atom     1 has atomic number  8 and mass  15.99491

 Molecular mass:   300.06810 amu.
 Principal axes and moments of inertia in atomic units:
                           1         2         3
     Eigenvalues --  3668.80633********************
           X            0.99998   0.00384  -0.00466
           Y           -0.00385   0.99999  -0.00230
           Z            0.00466   0.00232   0.99999
 This molecule is an asymmetric top.
 Rotational symmetry number  1.
 Warning -- assumption of classical behavior for rotation
           may cause significant error
 Rotational temperatures (Kelvin)      0.02361     0.00793     0.00651
 Rotational constants (GHZ):           0.49192     0.16525     0.13572
 Zero-point vibrational energy     651762.1 (Joules/Mol)
                                  155.77487 (Kcal/Mol)
 Warning -- explicit consideration of  25 degrees of freedom as
           vibrations may cause significant error
 Vibrational temperatures:     21.26    37.45    40.55    54.98    97.46
          (Kelvin)            124.20   157.70   209.78   259.28   331.79
                              374.93   383.03   443.72   475.47   524.58
                              556.67   595.73   601.64   605.89   637.90
                              696.93   743.24   767.40   796.04   825.94
                              900.08   903.40   957.75  1000.29  1003.84
                             1014.16  1023.06  1039.62  1100.27  1119.81
                             1158.06  1184.37  1229.89  1235.23  1262.16
                             1348.62  1361.87  1414.06  1423.81  1447.73
                             1454.25  1458.79  1467.86  1470.36  1507.12
                             1508.42  1530.57  1533.57  1555.64  1594.11
                             1596.58  1624.98  1711.75  1720.30  1723.49
                             1734.30  1765.67  1783.83  1839.49  1859.24
                             1910.55  1933.69  1961.83  1964.10  1966.78
                             2064.80  2128.13  2148.16  2178.33  2192.54
                             2229.65  2309.57  2362.26  2366.22  2381.04
                             2384.70  4623.16  4630.13  4636.03  4644.46
                             4647.67  4655.24  4659.42  4665.84  4678.96
                             4682.94  4806.60  5033.22

 Zero-point correction=                           0.248243 (Hartree/Particle)
 Thermal correction to Energy=                    0.265450
 Thermal correction to Enthalpy=                  0.266394
 Thermal correction to Gibbs Free Energy=         0.199483
 Sum of electronic and zero-point Energies=          -1308.022337
 Sum of electronic and thermal Energies=             -1308.005130
 Sum of electronic and thermal Enthalpies=           -1308.004186
 Sum of electronic and thermal Free Energies=        -1308.071097

                     E (Thermal)             CV                S
                      KCal/Mol        Cal/Mol-Kelvin    Cal/Mol-Kelvin
 Total                  166.572             66.607            140.826
 Electronic               0.000              0.000              0.000
 Translational            0.889              2.981             42.993
 Rotational               0.889              2.981             34.632
 Vibrational            164.795             60.645             63.201
 Vibration     1          0.593              1.986              7.235
 Vibration     2          0.593              1.985              6.111
 Vibration     3          0.593              1.984              5.953
 Vibration     4          0.594              1.982              5.350
 Vibration     5          0.598              1.970              4.218
 Vibration     6          0.601              1.959              3.742
 Vibration     7          0.606              1.942              3.276
 Vibration     8          0.617              1.907              2.726
 Vibration     9          0.629              1.867              2.326
 Vibration    10          0.652              1.794              1.874
 Vibration    11          0.669              1.745              1.658
 Vibration    12          0.672              1.735              1.621
 Vibration    13          0.698              1.658              1.371
 Vibration    14          0.713              1.615              1.258
 Vibration    15          0.738              1.545              1.102
 Vibration    16          0.755              1.498              1.012
 Vibration    17          0.778              1.440              0.912
 Vibration    18          0.781              1.431              0.898
 Vibration    19          0.784              1.424              0.888
 Vibration    20          0.803              1.376              0.816
 Vibration    21          0.841              1.285              0.698
 Vibration    22          0.872              1.213              0.618
 Vibration    23          0.888              1.176              0.580
 Vibration    24          0.909              1.133              0.537
 Vibration    25          0.930              1.087              0.496

 Optimization completed.
    -- Stationary point found.
 Normal termination of Gaussian 16 at Thu Sep 24 14:57:25 2020.

 ----------------------------------------------------------------------
 #p b3lyp/6-31G(d) scrf=(iefpcm,read,solvent=water) geom=allcheck guess
 =read
 ----------------------------------------------------------------------

 Structure from the checkpoint file:  "SM45_m0.n.9.pdb.xyz.mst.n.w.chk"
 -------------------
 SM45_m0.n.9.pdb.xyz
 -------------------
 Charge =  0 Multiplicity = 1

 SCF Done:  E(RB3LYP) =  -1308.27057969     A.U. after    3 cycles
 Normal termination of Gaussian 16 at Thu Sep 24 14:57:48 2020.

 -----------------------------
 #p B3LYP/6-31G* geom=allcheck
 -----------------------------

 Structure from the checkpoint file:  "SM45_m0.n.9.pdb.xyz.mst.n.w.chk"
 -------------------
 SM45_m0.n.9.pdb.xyz
 -------------------
 Charge =  0 Multiplicity = 1

 SCF Done:  E(RB3LYP) =  -1308.24544054     A.U. after   15 cycles
 Normal termination of Gaussian 16 at Thu Sep 24 14:58:42 2020.
 Gaussian 16:  ES64L-G16RevB.01 20-Dec-2017

 ----------------------------------------------------------------------
 #p mp2/aug-cc-pVDZ scf=(MaxCycle=2000,NoVarAcc,NoIncFock) maxdisk=120G
 B geom=allcheck
 ----------------------------------------------------------------------

 Structure from the checkpoint file:  "SM45_m0.n.9.pdb.xyz.mst.n.w.chk"
 -------------------
 SM45_m0.n.9.pdb.xyz
 -------------------
 Charge =  0 Multiplicity = 1

                         Standard orientation:
 ---------------------------------------------------------------------
 Center     Atomic      Atomic             Coordinates (Angstroms)
 Number     Number       Type             X           Y           Z
 ---------------------------------------------------------------------
      1          8           0        1.997776   -1.571416    1.603701
      2         16           0        2.540048   -1.249729    0.274583
      3          7           0        1.401863   -1.576827   -0.956325
      4          6           0        0.032708   -1.460300   -0.653173
      5          7           0       -0.747241   -2.531713   -0.337737
      6          7           0       -1.970906   -2.117380   -0.141345
      7          6           0       -0.746093   -0.323016   -0.639619
      8          7           0       -1.979740   -0.772359   -0.303156
      9          6           0       -3.183550   -0.028064   -0.135192
     10          6           0       -4.189527   -0.536315    0.690038
     11          6           0       -5.367208    0.191120    0.849610
     12          6           0       -5.534113    1.418270    0.203595
     13          6           0       -4.518095    1.916077   -0.614198
     14          6           0       -3.339375    1.193308   -0.794827
     15          6           0        2.741810    0.520672    0.179030
     16          6           0        3.351006    1.075710   -0.949724
     17          6           0        3.526423    2.456462   -1.003917
     18          6           0        3.098813    3.259927    0.058571
     19          6           0        2.496174    2.688249    1.179944
     20          6           0        2.313498    1.306519    1.248415
     21          8           0        3.766881   -1.915310   -0.188538
     22          1           0        1.645305   -2.477113   -1.375994
     23          1           0       -0.519008    0.714090   -0.814298
     24          1           0       -4.040673   -1.481945    1.194704
     25          1           0       -6.151047   -0.199829    1.489116
     26          1           0       -6.450288    1.982980    0.336348
     27          1           0       -4.642562    2.864987   -1.123708
     28          1           0       -2.560047    1.567866   -1.448002
     29          1           0        3.680777    0.443049   -1.765003
     30          1           0        3.997127    2.904202   -1.871902
     31          1           0        3.238388    4.334276    0.010586
     32          1           0        2.168661    3.313675    2.002531
     33          1           0        1.852670    0.839456    2.109611
 ---------------------------------------------------------------------

 SCF Done:  E(RHF) =  -1302.16398344     A.U. after   17 cycles
 E2 =    -0.3134098446D+01 EUMP2 =    -0.13052980818893D+04

 The electronic state is 1-A.
 Alpha  occ. eigenvalues --  -92.23016 -20.56193 -20.56191 -15.68941 -15.66247
 Alpha  occ. eigenvalues --  -15.62743 -15.62181 -11.31761 -11.31728 -11.30595
 Alpha  occ. eigenvalues --  -11.29555 -11.28242 -11.28069 -11.27862 -11.27196
 Alpha  occ. eigenvalues --  -11.27094 -11.27070 -11.26778 -11.26564 -11.26352
 Alpha  occ. eigenvalues --  -11.26166  -9.19825  -6.88349  -6.88303  -6.88207
 Alpha  occ. eigenvalues --   -1.46235  -1.45632  -1.33892  -1.27321  -1.23660
 Alpha  occ. eigenvalues --   -1.19154  -1.16790  -1.09070  -1.06629  -1.05242
 Alpha  occ. eigenvalues --   -1.04524  -1.03891  -0.93018  -0.90410  -0.87570
 Alpha  occ. eigenvalues --   -0.86332  -0.84063  -0.82361  -0.81489  -0.77288
 Alpha  occ. eigenvalues --   -0.74482  -0.71232  -0.71063  -0.68987  -0.67930
 Alpha  occ. eigenvalues --   -0.67451  -0.66336  -0.66306  -0.64652  -0.63691
 Alpha  occ. eigenvalues --   -0.62876  -0.62233  -0.61731  -0.61311  -0.55583
 Alpha  occ. eigenvalues --   -0.54975  -0.54086  -0.53707  -0.53469  -0.52948
 Alpha  occ. eigenvalues --   -0.52218  -0.51693  -0.50062  -0.48718  -0.46876
 Alpha  occ. eigenvalues --   -0.46721  -0.45367  -0.43704  -0.37791  -0.36758
 Alpha  occ. eigenvalues --   -0.36563  -0.36095  -0.33460
 Alpha virt. eigenvalues --    0.02099   0.02940   0.03456   0.03777   0.04258
 Alpha virt. eigenvalues --    0.04808   0.05396   0.05865   0.06393   0.06502
 Alpha virt. eigenvalues --    0.06606   0.07342   0.07638   0.08278   0.08746

 Mulliken charges:
               1
     1  O   -1.205622
     2  S    3.039262
     3  N   -1.059656
     4  C    1.056364
     5  N   -0.675705
     6  N   -0.380747
     7  C    0.672831
     8  N   -0.694684
     9  C    0.941860
    10  C    0.582052
    11  C    0.504145
    12  C    0.600171
    13  C    0.688369
    14  C    0.243274
    15  C    0.877255
    16  C   -0.037609
    17  C    0.483616
    18  C    0.544655
    19  C    0.412119
    20  C    0.245836
    21  O   -1.182326
    22  H   -0.045285
    23  H   -0.540981
    24  H   -0.538600
    25  H   -0.429201
    26  H   -0.445121
    27  H   -0.452502
    28  H   -0.645798
    29  H   -0.588595
    30  H   -0.450912
    31  H   -0.445000
    32  H   -0.466133
    33  H   -0.607330
 Sum of Mulliken charges =  -0.00000

 Dipole moment (field-independent basis, Debye):
    X=             -3.1406    Y=              8.1608    Z=             -2.2959  Tot=              9.0407
 Quadrupole moment (field-independent basis, Debye-Ang):
   XX=           -126.2509   YY=           -130.0938   ZZ=           -128.1235
   XY=              8.5735   XZ=            -10.3999   YZ=              2.2186

 Normal termination of Gaussian 16 at Thu Sep 24 15:49:41 2020.
