 Gaussian 16, Revision B.01,

 ----------------------------------------------------------------------
 #p b3lyp/6-31G(d) opt freq NoSymm scf=(MaxCycle=2000,NoVarAcc,NoIncFoc
 k) scrf=(iefpcm,read,solvent=water)
 ----------------------------------------------------------------------

 -------------------
 SM45_m1.a.9.pdb.xyz
 -------------------
 Symbolic Z-matrix:
 Charge = -1 Multiplicity = 1

 SCF Done:  E(RB3LYP) =  -1307.79546434     A.U. after   13 cycles
 SCF Done:  E(RB3LYP) =  -1307.79604247     A.U. after   10 cycles
 SCF Done:  E(RB3LYP) =  -1307.79600463     A.U. after   12 cycles
 SCF Done:  E(RB3LYP) =  -1307.79610308     A.U. after   12 cycles
 SCF Done:  E(RB3LYP) =  -1307.79605345     A.U. after   10 cycles
 SCF Done:  E(RB3LYP) =  -1307.79588119     A.U. after   10 cycles
 SCF Done:  E(RB3LYP) =  -1307.79609248     A.U. after   10 cycles
 SCF Done:  E(RB3LYP) =  -1307.79599739     A.U. after   10 cycles
 SCF Done:  E(RB3LYP) =  -1307.79608958     A.U. after   10 cycles
 SCF Done:  E(RB3LYP) =  -1307.79609276     A.U. after    8 cycles
 SCF Done:  E(RB3LYP) =  -1307.79609295     A.U. after    4 cycles
 SCF Done:  E(RB3LYP) =  -1307.79602966     A.U. after   10 cycles
 SCF Done:  E(RB3LYP) =  -1307.79600778     A.U. after   10 cycles
 SCF Done:  E(RB3LYP) =  -1307.79609219     A.U. after   10 cycles
 SCF Done:  E(RB3LYP) =  -1307.79601041     A.U. after   10 cycles
 SCF Done:  E(RB3LYP) =  -1307.79600878     A.U. after    7 cycles
 Optimization completed.
    -- Stationary point found.
 Normal termination of Gaussian 16 at Thu Sep 24 15:04:39 2020.

 --------------------------------------------------------------------
 #P Geom=AllCheck Guess=TCheck SCRF=Check GenChk RB3LYP/6-31G(d) Freq
 --------------------------------------------------------------------

 Structure from the checkpoint file:  "SM45_m1.a.9.pdb.xyz.mst.a.w.chk"
 -------------------
 SM45_m1.a.9.pdb.xyz
 -------------------
 Charge = -1 Multiplicity = 1

 SCF Done:  E(RB3LYP) =  -1307.79600878     A.U. after    1 cycles

  Exact polarizability: 300.633 -38.454 261.168 -50.136 -26.591 231.364
 Approx polarizability: 321.116 -45.562 305.538 -64.203 -40.733 293.462

                      1                      2                      3
                      A                      A                      A
 Frequencies --     17.9276                21.1578                34.2301
 Red. masses --      6.2920                 5.6338                 3.7447
 Frc consts  --      0.0012                 0.0015                 0.0026
 IR Inten    --      2.2041                 1.9774                 0.2073

                      4                      5                      6
                      A                      A                      A
 Frequencies --     41.9539                78.4958                81.1951
 Red. masses --      5.2992                 7.5268                 5.2845
 Frc consts  --      0.0055                 0.0273                 0.0205
 IR Inten    --      0.9678                 5.5395                 5.2081

                      7                      8                      9
                      A                      A                      A
 Frequencies --    118.7773               139.5656               168.5819
 Red. masses --      7.0923                 6.7585                 6.2391
 Frc consts  --      0.0590                 0.0776                 0.1045
 IR Inten    --      1.1571                 2.8088                 2.8095

                     10                     11                     12
                      A                      A                      A
 Frequencies --    229.3037               267.3294               290.3733
 Red. masses --      5.2167                 7.4850                 7.1848
 Frc consts  --      0.1616                 0.3152                 0.3569
 IR Inten    --      0.3253                10.8500                 2.5384

                     13                     14                     15
                      A                      A                      A
 Frequencies --    298.3591               314.7761               379.3880
 Red. masses --      8.5568                 8.3644                 7.8916
 Frc consts  --      0.4488                 0.4883                 0.6692
 IR Inten    --      8.7934                 7.9700                 1.3163

                     16                     17                     18
                      A                      A                      A
 Frequencies --    412.1753               415.7997               419.6688
 Red. masses --      6.7109                 2.9959                 3.2109
 Frc consts  --      0.6717                 0.3052                 0.3332
 IR Inten    --      4.5704                 0.1676                 0.0393

                     19                     20                     21
                      A                      A                      A
 Frequencies --    441.7937               455.8049               508.0946
 Red. masses --     10.7987                 5.9527                 4.3657
 Frc consts  --      1.2418                 0.7287                 0.6640
 IR Inten    --      5.7330                15.6779                 9.2464

                     22                     23                     24
                      A                      A                      A
 Frequencies --    539.1748               548.8986               582.0993
 Red. masses --      4.0327                 8.6572                 8.9278
 Frc consts  --      0.6907                 1.5368                 1.7823
 IR Inten    --     42.0427               158.7595               167.4650

                     25                     26                     27
                      A                      A                      A
 Frequencies --    627.7072               628.4483               656.8794
 Red. masses --      6.4319                 6.4300                 5.7112
 Frc consts  --      1.4931                 1.4962                 1.4519
 IR Inten    --      0.1238                 0.9556                45.1328

                     28                     29                     30
                      A                      A                      A
 Frequencies --    688.5375               704.1429               705.8500
 Red. masses --      6.2967                 2.6876                 2.4257
 Frc consts  --      1.7588                 0.7851                 0.7120
 IR Inten    --     14.9133                45.8935                24.7913

                     31                     32                     33
                      A                      A                      A
 Frequencies --    709.4482               722.1548               749.1404
 Red. masses --      5.8548                 4.4405                 2.4197
 Frc consts  --      1.7362                 1.3644                 0.8001
 IR Inten    --     21.2723                69.0893                42.4459

                     34                     35                     36
                      A                      A                      A
 Frequencies --    767.7462               776.7364               793.1229
 Red. masses --      1.5546                 1.6562                 2.6061
 Frc consts  --      0.5399                 0.5887                 0.9659
 IR Inten    --     13.7150               100.9003                62.5002

                     37                     38                     39
                      A                      A                      A
 Frequencies --    854.5276               866.7414               930.3291
 Red. masses --      1.2497                 1.2448                 5.8845
 Frc consts  --      0.5377                 0.5510                 3.0008
 IR Inten    --      0.1846                 0.4669               139.3692

                     40                     41                     42
                      A                      A                      A
 Frequencies --    933.0887               941.3312               980.9716
 Red. masses --      1.3988                 1.4829                 1.3420
 Frc consts  --      0.7176                 0.7742                 0.7609
 IR Inten    --      4.0974                22.3173                 0.0781

                     43                     44                     45
                      A                      A                      A
 Frequencies --    985.5173               996.4517              1007.7243
 Red. masses --      1.3550                 7.8314                 1.2611
 Frc consts  --      0.7754                 4.5814                 0.7545
 IR Inten    --      0.4091                68.4768                 0.3540

                     46                     47                     48
                      A                      A                      A
 Frequencies --   1011.5241              1014.9715              1017.8504
 Red. masses --      1.2655                 6.3768                 6.0062
 Frc consts  --      0.7629                 3.8705                 3.6662
 IR Inten    --      0.5164                 4.0111                 0.7387

                     49                     50                     51
                      A                      A                      A
 Frequencies --   1044.4417              1048.3292              1057.1271
 Red. masses --      3.2178                 3.0517                 2.6112
 Frc consts  --      2.0681                 1.9760                 1.7193
 IR Inten    --     43.6455                26.1673                25.7550

                     52                     53                     54
                      A                      A                      A
 Frequencies --   1061.2284              1087.8908              1094.7250
 Red. masses --      2.8589                 4.3859                 1.5252
 Frc consts  --      1.8970                 3.0583                 1.0769
 IR Inten    --    238.4672               256.6914                25.1947

                     55                     56                     57
                      A                      A                      A
 Frequencies --   1110.9946              1116.9123              1188.3602
 Red. masses --      1.6758                 3.7209                 1.1001
 Frc consts  --      1.2187                 2.7349                 0.9153
 IR Inten    --     21.0541               217.0694                 0.3719

                     58                     59                     60
                      A                      A                      A
 Frequencies --   1189.0962              1193.8920              1201.2909
 Red. masses --      1.1087                 1.1784                 1.2462
 Frc consts  --      0.9236                 0.9896                 1.0596
 IR Inten    --      0.1896                 2.7550                 2.0561

                     61                     62                     63
                      A                      A                      A
 Frequencies --   1206.3718              1227.0582              1250.6176
 Red. masses --     16.1907                 3.5691                 3.1976
 Frc consts  --     13.8828                 3.1662                 2.9466
 IR Inten    --    412.1644                14.0915                21.8207

                     64                     65                     66
                      A                      A                      A
 Frequencies --   1270.1056              1326.7581              1333.0822
 Red. masses --      4.1999                 1.4270                 3.8539
 Frc consts  --      3.9918                 1.4800                 4.0352
 IR Inten    --    275.8080                 1.2718                90.6558

                     67                     68                     69
                      A                      A                      A
 Frequencies --   1356.4693              1366.6930              1374.5244
 Red. masses --      6.8142                 3.3337                 2.5215
 Frc consts  --      7.3872                 3.6687                 2.8069
 IR Inten    --      0.3265                 7.8498               196.7185

                     70                     71                     72
                      A                      A                      A
 Frequencies --   1456.0354              1487.5588              1512.1556
 Red. masses --      4.4266                 2.1345                 2.5101
 Frc consts  --      5.5292                 2.7829                 3.3817
 IR Inten    --    152.0928                18.8702                20.1250

                     73                     74                     75
                      A                      A                      A
 Frequencies --   1518.8187              1547.0798              1574.0211
 Red. masses --      2.1384                 2.7228                 6.0497
 Frc consts  --      2.9064                 3.8396                 8.8309
 IR Inten    --      7.7421               297.7591               194.0917

                     76                     77                     78
                      A                      A                      A
 Frequencies --   1639.7024              1643.8212              1652.0631
 Red. masses --      5.8892                 5.5890                 6.2927
 Frc consts  --      9.3290                 8.8980                10.1190
 IR Inten    --      0.4255                 0.8112                 6.8471

                     79                     80                     81
                      A                      A                      A
 Frequencies --   1658.2998              3205.6888              3210.7370
 Red. masses --      5.6906                 1.0858                 1.0860
 Frc consts  --      9.2201                 6.5740                 6.5962
 IR Inten    --     47.2457                 0.1908                 0.2262

                     82                     83                     84
                      A                      A                      A
 Frequencies --   3215.0376              3219.5311              3224.6256
 Red. masses --      1.0891                 1.0897                 1.0934
 Frc consts  --      6.6330                 6.6551                 6.6984
 IR Inten    --     21.1950                19.8151                33.8620

                     85                     86                     87
                      A                      A                      A
 Frequencies --   3228.8152              3234.0935              3237.5485
 Red. masses --      1.0937                 1.0939                 1.0958
 Frc consts  --      6.7179                 6.7414                 6.7671
 IR Inten    --     45.7022                23.4807                15.0243

                     88                     89                     90
                      A                      A                      A
 Frequencies --   3239.9296              3254.5347              3334.1052
 Red. masses --      1.0937                 1.0930                 1.0988
 Frc consts  --      6.7642                 6.8209                 7.1968
 IR Inten    --     10.0314                 3.1548                 3.9940

 - Thermochemistry -
 -------------------
 Temperature   298.150 Kelvin.  Pressure   1.00000 Atm.
 Atom     1 has atomic number  8 and mass  15.99491

 Molecular mass:   299.06027 amu.
 Principal axes and moments of inertia in atomic units:
                           1         2         3
     Eigenvalues --  3468.98953********************
           X            0.99867   0.04951   0.01436
           Y           -0.04880   0.99774  -0.04626
           Z           -0.01662   0.04550   0.99883
 This molecule is an asymmetric top.
 Rotational symmetry number  1.
 Warning -- assumption of classical behavior for rotation
           may cause significant error
 Rotational temperatures (Kelvin)      0.02497     0.00761     0.00654
 Rotational constants (GHZ):           0.52025     0.15866     0.13624
 Zero-point vibrational energy     617727.9 (Joules/Mol)
                                  147.64051 (Kcal/Mol)
 Warning -- explicit consideration of  24 degrees of freedom as
           vibrations may cause significant error
 Vibrational temperatures:     25.79    30.44    49.25    60.36   112.94
          (Kelvin)            116.82   170.89   200.80   242.55   329.92
                              384.63   417.78   429.27   452.89   545.85
                              593.03   598.24   603.81   635.64   655.80
                              731.03   775.75   789.74   837.51   903.13
                              904.20   945.10   990.65  1013.10  1015.56
                             1020.74  1039.02  1077.85  1104.62  1117.55
                             1141.13  1229.47  1247.05  1338.54  1342.51
                             1354.37  1411.40  1417.94  1433.67  1449.89
                             1455.36  1460.32  1464.46  1502.72  1508.31
                             1520.97  1526.87  1565.23  1575.07  1598.47
                             1606.99  1709.79  1710.84  1717.74  1728.39
                             1735.70  1765.46  1799.36  1827.40  1908.91
                             1918.01  1951.66  1966.37  1977.63  2094.91
                             2140.27  2175.65  2185.24  2225.90  2264.67
                             2359.17  2365.09  2376.95  2385.92  4612.27
                             4619.53  4625.72  4632.19  4639.52  4645.54
                             4653.14  4658.11  4661.54  4682.55  4797.03

 Zero-point correction=                           0.235280 (Hartree/Particle)
 Thermal correction to Energy=                    0.252182
 Thermal correction to Enthalpy=                  0.253126
 Thermal correction to Gibbs Free Energy=         0.186989
 Sum of electronic and zero-point Energies=          -1307.560729
 Sum of electronic and thermal Energies=             -1307.543827
 Sum of electronic and thermal Enthalpies=           -1307.542883
 Sum of electronic and thermal Free Energies=        -1307.609020

                     E (Thermal)             CV                S
                      KCal/Mol        Cal/Mol-Kelvin    Cal/Mol-Kelvin
 Total                  158.246             65.292            139.197
 Electronic               0.000              0.000              0.000
 Translational            0.889              2.981             42.983
 Rotational               0.889              2.981             34.613
 Vibrational            156.469             59.330             61.601
 Vibration     1          0.593              1.986              6.851
 Vibration     2          0.593              1.985              6.522
 Vibration     3          0.594              1.983              5.568
 Vibration     4          0.595              1.980              5.165
 Vibration     5          0.600              1.964              3.928
 Vibration     6          0.600              1.962              3.862
 Vibration     7          0.609              1.934              3.120
 Vibration     8          0.615              1.914              2.810
 Vibration     9          0.625              1.881              2.451
 Vibration    10          0.652              1.796              1.884
 Vibration    11          0.672              1.733              1.613
 Vibration    12          0.686              1.692              1.472
 Vibration    13          0.691              1.677              1.426
 Vibration    14          0.702              1.645              1.337
 Vibration    15          0.749              1.514              1.042
 Vibration    16          0.776              1.444              0.919
 Vibration    17          0.779              1.436              0.906
 Vibration    18          0.782              1.427              0.893
 Vibration    19          0.802              1.379              0.821
 Vibration    20          0.814              1.348              0.778
 Vibration    21          0.863              1.232              0.638
 Vibration    22          0.894              1.163              0.567
 Vibration    23          0.904              1.142              0.546
 Vibration    24          0.939              1.070              0.481

                           ! Non-Optimized Parameters !
 Normal termination of Gaussian 16 at Thu Sep 24 15:16:24 2020.

 ----------------------------------------------------------------------
 #p b3lyp/6-31G(d) scrf=(iefpcm,read,solvent=water) geom=allcheck guess
 =read
 ----------------------------------------------------------------------

 Structure from the checkpoint file:  "SM45_m1.a.9.pdb.xyz.mst.a.w.chk"
 -------------------
 SM45_m1.a.9.pdb.xyz
 -------------------
 Charge = -1 Multiplicity = 1

 SCF Done:  E(RB3LYP) =  -1307.79600803     A.U. after    6 cycles
 Normal termination of Gaussian 16 at Thu Sep 24 15:17:02 2020.

 -----------------------------
 #p B3LYP/6-31G* geom=allcheck
 -----------------------------

 Structure from the checkpoint file:  "SM45_m1.a.9.pdb.xyz.mst.a.w.chk"
 -------------------
 SM45_m1.a.9.pdb.xyz
 -------------------
 Charge = -1 Multiplicity = 1

 SCF Done:  E(RB3LYP) =  -1307.69000166     A.U. after   15 cycles

 The electronic state is 1-A.
 Alpha  occ. eigenvalues --  -88.92861 -18.95262 -18.95190 -14.30851 -14.26044
 Alpha  occ. eigenvalues --  -14.21507 -14.14097 -10.15501 -10.12058 -10.11872
 Alpha  occ. eigenvalues --  -10.11650 -10.11590 -10.11113 -10.10479 -10.09414
 Alpha  occ. eigenvalues --  -10.08886 -10.08725 -10.08680 -10.08365 -10.07984
 Alpha  occ. eigenvalues --  -10.07927  -7.95181  -5.91649  -5.91606  -5.91568
 Alpha  occ. eigenvalues --   -0.96852  -0.91509  -0.81262  -0.80010  -0.76339
 Alpha  occ. eigenvalues --   -0.74505  -0.73191  -0.67601  -0.66754  -0.64778
 Alpha  occ. eigenvalues --   -0.63776  -0.63561  -0.55179  -0.53987  -0.51629
 Alpha  occ. eigenvalues --   -0.49629  -0.48369  -0.48212  -0.45393  -0.43427
 Alpha  occ. eigenvalues --   -0.41378  -0.39295  -0.37691  -0.37198  -0.35487
 Alpha  occ. eigenvalues --   -0.35124  -0.34486  -0.34028  -0.33394  -0.32680
 Alpha  occ. eigenvalues --   -0.31504  -0.30723  -0.28911  -0.28737  -0.27497
 Alpha  occ. eigenvalues --   -0.26962  -0.25802  -0.25232  -0.23639  -0.21616
 Alpha  occ. eigenvalues --   -0.20620  -0.17874  -0.17688  -0.15864  -0.15266
 Alpha  occ. eigenvalues --   -0.14551  -0.14379  -0.13871  -0.13137  -0.12425
 Alpha  occ. eigenvalues --   -0.10880  -0.07562  -0.06515
 Alpha virt. eigenvalues --    0.06560   0.07219   0.10064   0.10676   0.13708
 Alpha virt. eigenvalues --    0.16269   0.18613   0.19750   0.20585   0.22438
 Alpha virt. eigenvalues --    0.23794   0.24236   0.24359   0.25414   0.25487

 Mulliken charges:
               1
     1  O   -0.599495
     2  S    1.108580
     3  N   -0.674263
     4  C    0.368497
     5  N   -0.302423
     6  N   -0.119215
     7  C   -0.015898
     8  N   -0.362806
     9  C    0.337900
    10  C   -0.149573
    11  C   -0.143247
    12  C   -0.128093
    13  C   -0.143694
    14  C   -0.166107
    15  C   -0.118777
    16  C   -0.149925
    17  C   -0.131048
    18  C   -0.134101
    19  C   -0.128856
    20  C   -0.155880
    21  O   -0.602457
    22  H    0.143832
    23  H    0.168170
    24  H    0.117272
    25  H    0.107574
    26  H    0.115725
    27  H    0.141227
    28  H    0.156515
    29  H    0.099887
    30  H    0.095099
    31  H    0.103050
    32  H    0.162529
 Sum of Mulliken charges =  -1.00000

 Dipole moment (field-independent basis, Debye):
    X=             -9.5434    Y=              9.9593    Z=             -0.7506  Tot=             13.8140
 Quadrupole moment (field-independent basis, Debye-Ang):
   XX=           -167.6640   YY=           -152.3641   ZZ=           -131.3020
   XY=             14.1750   XZ=              0.8858   YZ=             -0.5881

 Normal termination of Gaussian 16 at Thu Sep 24 15:17:52 2020.
 Gaussian 16:  ES64L-G16RevB.01 20-Dec-2017

 ----------------------------------------------------------------------
 #p mp2/aug-cc-pVDZ scf=(MaxCycle=2000,NoVarAcc,NoIncFock) maxdisk=120G
 B geom=allcheck
 ----------------------------------------------------------------------

 Structure from the checkpoint file:  "SM45_m1.a.9.pdb.xyz.mst.a.w.chk"
 -------------------
 SM45_m1.a.9.pdb.xyz
 -------------------
 Charge = -1 Multiplicity = 1

                         Standard orientation:
 ---------------------------------------------------------------------
 Center     Atomic      Atomic             Coordinates (Angstroms)
 Number     Number       Type             X           Y           Z
 ---------------------------------------------------------------------
      1          8           0        2.581882   -1.810008    1.287482
      2         16           0        2.651264   -1.260005   -0.096884
      3          7           0        1.377808   -1.557485   -1.012459
      4          6           0        0.110956   -1.376746   -0.472321
      5          7           0       -0.467685   -2.192757    0.476540
      6          7           0       -1.700412   -1.808899    0.693059
      7          6           0       -0.845869   -0.447642   -0.849849
      8          7           0       -1.947427   -0.747597   -0.111059
      9          6           0       -3.220336   -0.113428   -0.106210
     10          6           0       -4.054092   -0.252334    1.007979
     11          6           0       -5.301729    0.367976    1.007652
     12          6           0       -5.713693    1.132689   -0.086441
     13          6           0       -4.870495    1.268781   -1.190429
     14          6           0       -3.624464    0.643163   -1.210349
     15          6           0        2.776084    0.526115    0.131248
     16          6           0        3.424612    1.299375   -0.834801
     17          6           0        3.470238    2.685948   -0.689606
     18          6           0        2.863005    3.295492    0.412265
     19          6           0        2.215374    2.516700    1.373155
     20          6           0        2.169961    1.128243    1.236110
     21          8           0        3.849525   -1.654450   -0.881595
     22          1           0       -0.811959    0.373102   -1.544949
     23          1           0       -3.718652   -0.837021    1.854553
     24          1           0       -5.948750    0.259459    1.871337
     25          1           0       -6.683287    1.618645   -0.078277
     26          1           0       -5.182723    1.856420   -2.046651
     27          1           0       -2.979854    0.732609   -2.076651
     28          1           0        3.900062    0.812008   -1.678157
     29          1           0        3.981867    3.289012   -1.432474
     30          1           0        2.899626    4.374093    0.523613
     31          1           0        1.750410    2.987885    2.232769
     32          1           0        1.688479    0.510712    1.984956
 ---------------------------------------------------------------------

 SCF Done:  E(RHF) =  -1301.60925283     A.U. after   18 cycles
