 Gaussian 16, Revision B.01,

 ----------------------------------------------------------------------
 #p b3lyp/6-31G(d) opt freq NoSymm scf=(MaxCycle=2000,NoVarAcc,NoIncFoc
 k) scrf=(iefpcm,read,solvent=water)
 ----------------------------------------------------------------------

 -------------------
 SM45_m0.n.6.pdb.xyz
 -------------------
 Symbolic Z-matrix:
 Charge =  0 Multiplicity = 1

 SCF Done:  E(RB3LYP) =  -1308.27193646     A.U. after   13 cycles
 SCF Done:  E(RB3LYP) =  -1308.27197705     A.U. after    9 cycles
 SCF Done:  E(RB3LYP) =  -1308.27197538     A.U. after    8 cycles
 SCF Done:  E(RB3LYP) =  -1308.27196964     A.U. after    9 cycles
 SCF Done:  E(RB3LYP) =  -1308.27197435     A.U. after    9 cycles
 SCF Done:  E(RB3LYP) =  -1308.27197132     A.U. after    9 cycles
 SCF Done:  E(RB3LYP) =  -1308.27197725     A.U. after    9 cycles
 SCF Done:  E(RB3LYP) =  -1308.27197212     A.U. after    9 cycles
 Optimization completed.
    -- Stationary point found.
 Normal termination of Gaussian 16 at Wed Sep 23 06:11:57 2020.

 --------------------------------------------------------------------
 #P Geom=AllCheck Guess=TCheck SCRF=Check GenChk RB3LYP/6-31G(d) Freq
 --------------------------------------------------------------------

 Structure from the checkpoint file:  "SM45_m0.n.6.pdb.xyz.mst.n.w.chk"
 -------------------
 SM45_m0.n.6.pdb.xyz
 -------------------
 Charge =  0 Multiplicity = 1

 SCF Done:  E(RB3LYP) =  -1308.27197212     A.U. after    1 cycles

  Exact polarizability: 284.983  43.813 248.052  46.912 -30.438 234.956
 Approx polarizability: 311.130  52.563 290.189  63.155 -44.378 297.047

                      1                      2                      3
                      A                      A                      A
 Frequencies --     18.9814                21.6728                31.4324
 Red. masses --      5.6077                 5.3793                 3.9316
 Frc consts  --      0.0012                 0.0015                 0.0023
 IR Inten    --      1.1930                 0.9823                 0.4179

                      4                      5                      6
                      A                      A                      A
 Frequencies --     44.4560                76.7986                88.4762
 Red. masses --      5.4105                 6.3423                 5.4824
 Frc consts  --      0.0063                 0.0220                 0.0253
 IR Inten    --      2.2905                 1.0131                13.2403

                      7                      8                      9
                      A                      A                      A
 Frequencies --    116.6897               132.8280               170.9293
 Red. masses --      7.0388                 5.7100                 6.1754
 Frc consts  --      0.0565                 0.0594                 0.1063
 IR Inten    --      2.5532                 2.7785                 3.1250

                     10                     11                     12
                      A                      A                      A
 Frequencies --    228.3891               258.8963               282.8342
 Red. masses --      5.3508                 7.3746                 9.0827
 Frc consts  --      0.1644                 0.2912                 0.4281
 IR Inten    --      0.1287                 2.2594                 1.3822

                     13                     14                     15
                      A                      A                      A
 Frequencies --    298.7470               303.8617               374.5434
 Red. masses --      4.9729                 8.7639                 7.7649
 Frc consts  --      0.2615                 0.4768                 0.6418
 IR Inten    --      4.1943                 6.4637                 0.3978

                     16                     17                     18
                      A                      A                      A
 Frequencies --    409.7131               412.9895               419.0269
 Red. masses --      4.6185                 3.0034                 5.3674
 Frc consts  --      0.4568                 0.3018                 0.5553
 IR Inten    --     19.7927                 0.2937                 5.1952

                     19                     20                     21
                      A                      A                      A
 Frequencies --    420.6360               442.5845               487.0064
 Red. masses --      3.5880                 5.3021                 3.3057
 Frc consts  --      0.3740                 0.6119                 0.4619
 IR Inten    --      1.4575                10.3177                14.3390

                     22                     23                     24
                      A                      A                      A
 Frequencies --    523.0234               539.2360               541.9995
 Red. masses --      2.7408                 6.1863                 4.7435
 Frc consts  --      0.4417                 1.0598                 0.8210
 IR Inten    --     51.0378                91.4889                69.0159

                     25                     26                     27
                      A                      A                      A
 Frequencies --    596.6647               624.7866               627.4474
 Red. masses --      6.7403                 6.4422                 6.3978
 Frc consts  --      1.4138                 1.4816                 1.4840
 IR Inten    --    415.9779                 0.0408                 1.0801

                     28                     29                     30
                      A                      A                      A
 Frequencies --    666.9214               695.5834               697.5043
 Red. masses --      3.4878                 2.5571                 5.9697
 Frc consts  --      0.9140                 0.7290                 1.7112
 IR Inten    --      8.2320                28.8463                28.2360

                     31                     32                     33
                      A                      A                      A
 Frequencies --    705.6250               720.1318               724.0350
 Red. masses --      2.3019                 7.8821                 6.4443
 Frc consts  --      0.6753                 2.4083                 1.9904
 IR Inten    --     31.5514                23.8893               106.6755

                     34                     35                     36
                      A                      A                      A
 Frequencies --    765.5465               778.3403               791.2053
 Red. masses --      1.4680                 1.6183                 1.8135
 Frc consts  --      0.5069                 0.5776                 0.6689
 IR Inten    --     27.1620                85.6010                20.2998

                     37                     38                     39
                      A                      A                      A
 Frequencies --    822.5313               851.7705               854.6885
 Red. masses --      3.2740                 2.9222                 1.2626
 Frc consts  --      1.3051                 1.2491                 0.5434
 IR Inten    --      2.0292                99.2863                 0.7004

                     40                     41                     42
                      A                      A                      A
 Frequencies --    859.9849               936.9723               948.2660
 Red. masses --      1.2565                 1.3877                 1.3157
 Frc consts  --      0.5475                 0.7178                 0.6971
 IR Inten    --      1.1842                 6.0675                 0.3504

                     43                     44                     45
                      A                      A                      A
 Frequencies --    982.8125               988.0437              1005.3670
 Red. masses --      1.3440                 1.3576                 7.6372
 Frc consts  --      0.7649                 0.7809                 4.5481
 IR Inten    --      0.2448                 0.0661                28.3673

                     46                     47                     48
                      A                      A                      A
 Frequencies --   1010.6876              1013.2696              1020.0417
 Red. masses --      1.2698                 6.4219                 6.0845
 Frc consts  --      0.7642                 3.8847                 3.7300
 IR Inten    --      0.2786                 6.6629                 0.2009

                     49                     50                     51
                      A                      A                      A
 Frequencies --   1020.9635              1045.2858              1045.4827
 Red. masses --      1.2889                 3.0632                 3.3557
 Frc consts  --      0.7916                 1.9720                 2.1611
 IR Inten    --      0.3329                17.3640                 2.2201

                     52                     53                     54
                      A                      A                      A
 Frequencies --   1060.8989              1064.7863              1081.5190
 Red. masses --      1.9826                 4.2140                 3.4367
 Frc consts  --      1.3147                 2.8149                 2.3684
 IR Inten    --     78.6853                71.7539                84.5129

                     55                     56                     57
                      A                      A                      A
 Frequencies --   1103.8493              1108.5006              1131.6410
 Red. masses --      1.5295                 1.5446                 6.2349
 Frc consts  --      1.0980                 1.1183                 4.7043
 IR Inten    --     13.9588                11.8528               372.3574

                     58                     59                     60
                      A                      A                      A
 Frequencies --   1189.3732              1191.5718              1196.6745
 Red. masses --      1.1039                 1.1003                 1.1742
 Frc consts  --      0.9201                 0.9204                 0.9907
 IR Inten    --      0.1556                 0.4074                 2.2736

                     61                     62                     63
                      A                      A                      A
 Frequencies --   1198.4061              1223.8457              1231.8299
 Red. masses --      1.1819                 2.3155                 3.0370
 Frc consts  --      1.0001                 2.0434                 2.7152
 IR Inten    --      1.0965                12.6569                 5.7721

                     64                     65                     66
                      A                      A                      A
 Frequencies --   1290.1212              1304.7685              1336.9705
 Red. masses --      6.2682                12.8317                 1.4509
 Frc consts  --      6.1468                12.8707                 1.5280
 IR Inten    --    186.9476               186.6907                 1.6253

                     67                     68                     69
                      A                      A                      A
 Frequencies --   1343.9633              1361.9999              1364.9244
 Red. masses --      2.4328                 6.0648                 2.5723
 Frc consts  --      2.5890                 6.6285                 2.8235
 IR Inten    --     66.4556                 3.0007                 2.1994

                     70                     71                     72
                      A                      A                      A
 Frequencies --   1381.7050              1422.2922              1482.7439
 Red. masses --      3.1972                 2.1419                 2.6484
 Frc consts  --      3.5962                 2.5528                 3.4306
 IR Inten    --    110.7834                22.7304                21.3997

                     73                     74                     75
                      A                      A                      A
 Frequencies --   1491.6385              1513.8411              1518.8433
 Red. masses --      2.1752                 2.5983                 2.0817
 Frc consts  --      2.8516                 3.5083                 2.8294
 IR Inten    --     28.9983                14.2830                 3.8592

                     76                     77                     78
                      A                      A                      A
 Frequencies --   1548.9424              1589.2086              1639.7265
 Red. masses --      2.7546                 6.3893                 5.5353
 Frc consts  --      3.8938                 9.5075                 8.7686
 IR Inten    --    126.6168                78.1961                 4.7996

                     79                     80                     81
                      A                      A                      A
 Frequencies --   1643.0543              1654.6095              1657.0538
 Red. masses --      5.8774                 6.4011                 5.7245
 Frc consts  --      9.3485                10.3252                 9.2611
 IR Inten    --      0.1422                 5.9348                26.5726

                     82                     83                     84
                      A                      A                      A
 Frequencies --   3214.1451              3215.6064              3223.3542
 Red. masses --      1.0863                 1.0866                 1.0898
 Frc consts  --      6.6118                 6.6200                 6.6710
 IR Inten    --      0.0416                 0.6865                16.9944

                     85                     86                     87
                      A                      A                      A
 Frequencies --   3224.9071              3232.0483              3233.7473
 Red. masses --      1.0900                 1.0936                 1.0942
 Frc consts  --      6.6790                 6.7307                 6.7415
 IR Inten    --     17.4272                41.2397                23.4257

                     88                     89                     90
                      A                      A                      A
 Frequencies --   3239.8459              3244.1036              3250.3464
 Red. masses --      1.0959                 1.0946                 1.0936
 Frc consts  --      6.7776                 6.7871                 6.8073
 IR Inten    --     12.9616                10.1952                 4.5950

                     91                     92                     93
                      A                      A                      A
 Frequencies --   3255.8472              3337.3373              3499.0722
 Red. masses --      1.0935                 1.1005                 1.0761
 Frc consts  --      6.8294                 7.2214                 7.7627
 IR Inten    --      2.7956                 8.0591               150.6276

 - Thermochemistry -
 -------------------
 Temperature   298.150 Kelvin.  Pressure   1.00000 Atm.
 Atom     1 has atomic number  8 and mass  15.99491

 Molecular mass:   300.06810 amu.
 Principal axes and moments of inertia in atomic units:
                           1         2         3
     Eigenvalues --  3563.54630********************
           X            0.99999  -0.00054   0.00511
           Y            0.00053   1.00000   0.00153
           Z           -0.00511  -0.00152   0.99999
 This molecule is an asymmetric top.
 Rotational symmetry number  1.
 Warning -- assumption of classical behavior for rotation
           may cause significant error
 Rotational temperatures (Kelvin)      0.02431     0.00784     0.00668
 Rotational constants (GHZ):           0.50645     0.16327     0.13910
 Zero-point vibrational energy     651638.1 (Joules/Mol)
                                  155.74523 (Kcal/Mol)
 Warning -- explicit consideration of  25 degrees of freedom as
           vibrations may cause significant error
 Vibrational temperatures:     27.31    31.18    45.22    63.96   110.50
          (Kelvin)            127.30   167.89   191.11   245.93   328.60
                              372.49   406.94   429.83   437.19   538.88
                              589.49   594.20   602.89   605.20   636.78
                              700.69   752.51   775.84   779.82   858.47
                              898.93   902.76   959.55  1000.79  1003.55
                             1015.24  1036.11  1041.72  1101.45  1119.86
                             1138.37  1183.44  1225.51  1229.71  1237.33
                             1348.09  1364.34  1414.05  1421.57  1446.50
                             1454.15  1457.87  1467.61  1468.94  1503.93
                             1504.22  1526.40  1531.99  1556.06  1588.19
                             1594.89  1628.18  1711.24  1714.41  1721.75
                             1724.24  1760.84  1772.33  1856.20  1877.27
                             1923.60  1933.66  1959.61  1963.82  1987.97
                             2046.36  2133.34  2146.14  2178.08  2185.28
                             2228.58  2286.52  2359.20  2363.99  2380.61
                             2384.13  4624.44  4626.54  4637.69  4639.92
                             4650.20  4652.64  4661.42  4667.54  4676.52
                             4684.44  4801.68  5034.38

 Zero-point correction=                           0.248196 (Hartree/Particle)
 Thermal correction to Energy=                    0.265372
 Thermal correction to Enthalpy=                  0.266316
 Thermal correction to Gibbs Free Energy=         0.199818
 Sum of electronic and zero-point Energies=          -1308.023776
 Sum of electronic and thermal Energies=             -1308.006600
 Sum of electronic and thermal Enthalpies=           -1308.005656
 Sum of electronic and thermal Free Energies=        -1308.072154

                     E (Thermal)             CV                S
                      KCal/Mol        Cal/Mol-Kelvin    Cal/Mol-Kelvin
 Total                  166.524             66.593            139.958
 Electronic               0.000              0.000              0.000
 Translational            0.889              2.981             42.993
 Rotational               0.889              2.981             34.590
 Vibrational            164.746             60.632             62.374
 Vibration     1          0.593              1.986              6.738
 Vibration     2          0.593              1.985              6.475
 Vibration     3          0.594              1.983              5.737
 Vibration     4          0.595              1.980              5.050
 Vibration     5          0.599              1.965              3.971
 Vibration     6          0.601              1.957              3.693
 Vibration     7          0.608              1.936              3.154
 Vibration     8          0.613              1.921              2.905
 Vibration     9          0.626              1.878              2.425
 Vibration    10          0.651              1.798              1.892
 Vibration    11          0.668              1.748              1.669
 Vibration    12          0.682              1.705              1.516
 Vibration    13          0.692              1.676              1.424
 Vibration    14          0.695              1.666              1.396
 Vibration    15          0.746              1.524              1.061
 Vibration    16          0.774              1.449              0.928
 Vibration    17          0.777              1.442              0.916
 Vibration    18          0.782              1.429              0.895
 Vibration    19          0.783              1.425              0.890
 Vibration    20          0.802              1.377              0.819
 Vibration    21          0.843              1.279              0.691
 Vibration    22          0.878              1.199              0.603
 Vibration    23          0.894              1.163              0.567
 Vibration    24          0.897              1.157              0.561
 Vibration    25          0.955              1.039              0.455

                           ! Non-Optimized Parameters !
 Normal termination of Gaussian 16 at Wed Sep 23 06:23:22 2020.

 ----------------------------------------------------------------------
 #p b3lyp/6-31G(d) scrf=(iefpcm,read,solvent=water) geom=allcheck guess
 =read
 ----------------------------------------------------------------------

 Structure from the checkpoint file:  "SM45_m0.n.6.pdb.xyz.mst.n.w.chk"
 -------------------
 SM45_m0.n.6.pdb.xyz
 -------------------
 Charge =  0 Multiplicity = 1

 SCF Done:  E(RB3LYP) =  -1308.27196600     A.U. after    5 cycles
 Normal termination of Gaussian 16 at Wed Sep 23 06:23:53 2020.

 -----------------------------
 #p B3LYP/6-31G* geom=allcheck
 -----------------------------

 Structure from the checkpoint file:  "SM45_m0.n.6.pdb.xyz.mst.n.w.chk"
 -------------------
 SM45_m0.n.6.pdb.xyz
 -------------------
 Charge =  0 Multiplicity = 1

 SCF Done:  E(RB3LYP) =  -1308.23931557     A.U. after   15 cycles
 Normal termination of Gaussian 16 at Wed Sep 23 06:24:42 2020.
 Gaussian 16:  ES64L-G16RevB.01 20-Dec-2017

 ----------------------------------------------------------------------
 #p mp2/aug-cc-pVDZ scf=(MaxCycle=2000,NoVarAcc,NoIncFock) maxdisk=120G
 B geom=allcheck
 ----------------------------------------------------------------------

 Structure from the checkpoint file:  "SM45_m0.n.6.pdb.xyz.mst.n.w.chk"
 -------------------
 SM45_m0.n.6.pdb.xyz
 -------------------
 Charge =  0 Multiplicity = 1

                         Standard orientation:
 ---------------------------------------------------------------------
 Center     Atomic      Atomic             Coordinates (Angstroms)
 Number     Number       Type             X           Y           Z
 ---------------------------------------------------------------------
      1          8           0       -3.934376   -1.534208   -0.797066
      2         16           0       -2.756346   -1.167763   -0.000918
      3          7           0       -1.434817   -1.662607   -0.955797
      4          6           0       -0.123589   -1.456759   -0.484628
      5          7           0        0.440066   -2.279482    0.444017
      6          7           0        1.663036   -1.882363    0.670830
      7          6           0        0.802764   -0.502766   -0.853916
      8          7           0        1.901832   -0.807936   -0.121919
      9          6           0        3.172310   -0.160783   -0.108816
     10          6           0        3.957966   -0.224194    1.043951
     11          6           0        5.199426    0.408255    1.052874
     12          6           0        5.645910    1.107258   -0.070993
     13          6           0        4.847576    1.165899   -1.215053
     14          6           0        3.608760    0.526002   -1.243807
     15          6           0       -2.701662    0.610428    0.149629
     16          6           0       -3.278055    1.395124   -0.852188
     17          6           0       -3.210891    2.782619   -0.738057
     18          6           0       -2.573491    3.365521    0.360997
     19          6           0       -2.002786    2.566918    1.354217
     20          6           0       -2.062075    1.177015    1.253807
     21          8           0       -2.546602   -1.743661    1.331423
     22          1           0       -1.576003   -1.359159   -1.921276
     23          1           0        0.757629    0.327106   -1.537832
     24          1           0        3.592721   -0.756838    1.912193
     25          1           0        5.813091    0.361813    1.945534
     26          1           0        6.610225    1.602908   -0.055336
     27          1           0        5.189749    1.701506   -2.093603
     28          1           0        2.997127    0.550045   -2.137784
     29          1           0       -3.778661    0.928173   -1.691495
     30          1           0       -3.659739    3.406414   -1.502932
     31          1           0       -2.525972    4.445698    0.445027
     32          1           0       -1.515536    3.022784    2.208780
     33          1           0       -1.639081    0.540208    2.020534
 ---------------------------------------------------------------------

 SCF Done:  E(RHF) =  -1302.15847537     A.U. after   17 cycles
 E2 =    -0.3135058829D+01 EUMP2 =    -0.13052935341976D+04

 The electronic state is 1-A.
 Alpha  occ. eigenvalues --  -92.22817 -20.55955 -20.55659 -15.68986 -15.66324
 Alpha  occ. eigenvalues --  -15.63097 -15.62087 -11.32076 -11.31925 -11.31018
 Alpha  occ. eigenvalues --  -11.29546 -11.28256 -11.28028 -11.27841 -11.27263
 Alpha  occ. eigenvalues --  -11.27250 -11.27119 -11.26990 -11.26765 -11.26543
 Alpha  occ. eigenvalues --  -11.26346  -9.19592  -6.88127  -6.88075  -6.87984
 Alpha  occ. eigenvalues --   -1.46211  -1.45567  -1.33775  -1.27289  -1.23893
 Alpha  occ. eigenvalues --   -1.19130  -1.16982  -1.09162  -1.06537  -1.05245
 Alpha  occ. eigenvalues --   -1.04722  -1.04086  -0.92526  -0.90771  -0.87681
 Alpha  occ. eigenvalues --   -0.86337  -0.84332  -0.83079  -0.80786  -0.77207
 Alpha  occ. eigenvalues --   -0.75077  -0.72035  -0.71149  -0.69027  -0.68147
 Alpha  occ. eigenvalues --   -0.67036  -0.66793  -0.66374  -0.64663  -0.63786
 Alpha  occ. eigenvalues --   -0.62674  -0.62274  -0.61922  -0.61584  -0.55504
 Alpha  occ. eigenvalues --   -0.54618  -0.54096  -0.53795  -0.53549  -0.52947
 Alpha  occ. eigenvalues --   -0.52337  -0.50566  -0.49569  -0.49283  -0.46979
 Alpha  occ. eigenvalues --   -0.46586  -0.44868  -0.43983  -0.37618  -0.37190
 Alpha  occ. eigenvalues --   -0.36562  -0.36343  -0.33491
 Alpha virt. eigenvalues --    0.01914   0.02811   0.02896   0.03766   0.03848
 Alpha virt. eigenvalues --    0.04932   0.05000   0.05674   0.06326   0.06426
 Alpha virt. eigenvalues --    0.06685   0.07605   0.07721   0.07734   0.08368

 Mulliken charges:
               1
     1  O   -1.146168
     2  S    2.837641
     3  N   -0.920680
     4  C    1.233882
     5  N   -0.640166
     6  N   -0.455077
     7  C    0.824665
     8  N   -0.650463
     9  C    0.828912
    10  C    0.543344
    11  C    0.582554
    12  C    0.627267
    13  C    0.732341
    14  C    0.109964
    15  C    0.781642
    16  C    0.059056
    17  C    0.503654
    18  C    0.499814
    19  C    0.443218
    20  C    0.223877
    21  O   -1.189294
    22  H   -0.041043
    23  H   -0.591080
    24  H   -0.545991
    25  H   -0.431787
    26  H   -0.446368
    27  H   -0.445137
    28  H   -0.680771
    29  H   -0.599257
    30  H   -0.456455
    31  H   -0.445938
    32  H   -0.483096
    33  H   -0.663059
 Sum of Mulliken charges =  -0.00000

 Dipole moment (field-independent basis, Debye):
    X=              4.9920    Y=              8.8689    Z=             -3.4851  Tot=             10.7575
 Quadrupole moment (field-independent basis, Debye-Ang):
   XX=           -131.1483   YY=           -138.0237   ZZ=           -120.3763
   XY=            -11.4936   XZ=              5.0069   YZ=              3.5128

 Normal termination of Gaussian 16 at Wed Sep 23 07:05:28 2020.
