 Gaussian 16, Revision B.01,

 ----------------------------------------------------------------------
 #p b3lyp/6-31G(d) opt freq NoSymm scf=(MaxCycle=2000,NoVarAcc,NoIncFoc
 k) scrf=(iefpcm,read,solvent=water)
 ----------------------------------------------------------------------

 -------------------
 SM46_m1.a.2.pdb.xyz
 -------------------
 Symbolic Z-matrix:
 Charge = -1 Multiplicity = 1

 SCF Done:  E(RB3LYP) =  -1210.71525473     A.U. after   13 cycles
 SCF Done:  E(RB3LYP) =  -1210.71519142     A.U. after   10 cycles
 SCF Done:  E(RB3LYP) =  -1210.71514324     A.U. after   10 cycles
 SCF Done:  E(RB3LYP) =  -1210.71526157     A.U. after   10 cycles
 SCF Done:  E(RB3LYP) =  -1210.71514420     A.U. after   10 cycles
 SCF Done:  E(RB3LYP) =  -1210.71510991     A.U. after    9 cycles
 SCF Done:  E(RB3LYP) =  -1210.71525196     A.U. after   10 cycles
 SCF Done:  E(RB3LYP) =  -1210.71526539     A.U. after    9 cycles
 SCF Done:  E(RB3LYP) =  -1210.71510491     A.U. after   10 cycles
 SCF Done:  E(RB3LYP) =  -1210.71510851     A.U. after    8 cycles
 SCF Done:  E(RB3LYP) =  -1210.71526468     A.U. after    9 cycles
 SCF Done:  E(RB3LYP) =  -1210.71510204     A.U. after   10 cycles
 SCF Done:  E(RB3LYP) =  -1210.71510545     A.U. after    7 cycles
 SCF Done:  E(RB3LYP) =  -1210.71525479     A.U. after   10 cycles
 SCF Done:  E(RB3LYP) =  -1210.71526462     A.U. after    9 cycles
 SCF Done:  E(RB3LYP) =  -1210.71510600     A.U. after   10 cycles
 Optimization completed.
    -- Stationary point found.
 Normal termination of Gaussian 16 at Thu Sep 24 17:00:17 2020.

 --------------------------------------------------------------------
 #P Geom=AllCheck Guess=TCheck SCRF=Check GenChk RB3LYP/6-31G(d) Freq
 --------------------------------------------------------------------

 Structure from the checkpoint file:  "SM46_m1.a.2.pdb.xyz.mst.a.w.chk"
 -------------------
 SM46_m1.a.2.pdb.xyz
 -------------------
 Charge = -1 Multiplicity = 1

 SCF Done:  E(RB3LYP) =  -1210.71510600     A.U. after    1 cycles

  Exact polarizability: 326.855  24.112 154.299  -0.980 -48.067 189.222
 Approx polarizability: 331.093  25.132 190.451  -1.643 -63.046 232.219

                      1                      2                      3
                      A                      A                      A
 Frequencies --     28.7446                34.9649                62.7903
 Red. masses --      6.1619                 4.0007                 6.1865
 Frc consts  --      0.0030                 0.0029                 0.0144
 IR Inten    --      2.6194                 1.2416                 4.2887

                      4                      5                      6
                      A                      A                      A
 Frequencies --     66.4187                82.8983               106.8944
 Red. masses --      5.3056                 3.9125                 4.8211
 Frc consts  --      0.0138                 0.0158                 0.0325
 IR Inten    --      3.8309                 3.6809                 3.4576

                      7                      8                      9
                      A                      A                      A
 Frequencies --    133.1115               159.6050               229.2753
 Red. masses --      4.5105                 5.6933                 1.5414
 Frc consts  --      0.0471                 0.0854                 0.0477
 IR Inten    --      4.9138                 0.1428                 0.2059

                     10                     11                     12
                      A                      A                      A
 Frequencies --    234.8637               237.4792               268.4524
 Red. masses --      1.8813                 1.2001                 3.9534
 Frc consts  --      0.0611                 0.0399                 0.1679
 IR Inten    --      3.8843                 2.2462                 0.8750

                     13                     14                     15
                      A                      A                      A
 Frequencies --    283.9592               338.1912               343.8977
 Red. masses --      6.3468                 5.9928                 3.2655
 Frc consts  --      0.3015                 0.4038                 0.2275
 IR Inten    --     20.5566                 7.0516                 8.8832

                     16                     17                     18
                      A                      A                      A
 Frequencies --    375.4669               409.3013               417.4778
 Red. masses --      5.5499                 5.9629                 4.7511
 Frc consts  --      0.4610                 0.5886                 0.4879
 IR Inten    --      4.3147                 7.5108                13.1954

                     19                     20                     21
                      A                      A                      A
 Frequencies --    422.3870               470.7221               489.9869
 Red. masses --      3.6732                 5.5098                 5.9415
 Frc consts  --      0.3861                 0.7193                 0.8405
 IR Inten    --      3.9153                40.3891                34.8405

                     22                     23                     24
                      A                      A                      A
 Frequencies --    513.3982               530.2634               567.1481
 Red. masses --      8.2354                 3.9078                 6.8758
 Frc consts  --      1.2789                 0.6474                 1.3031
 IR Inten    --     22.8931                27.3042                72.6033

                     25                     26                     27
                      A                      A                      A
 Frequencies --    628.7107               664.5786               669.0087
 Red. masses --      6.4293                 6.8823                 3.5859
 Frc consts  --      1.4973                 1.7909                 0.9456
 IR Inten    --      0.2019               185.5208                14.2067

                     28                     29                     30
                      A                      A                      A
 Frequencies --    689.1924               706.2324               710.3926
 Red. masses --      2.4082                 2.3535                 6.5078
 Frc consts  --      0.6740                 0.6916                 1.9350
 IR Inten    --     10.7464                27.4666               209.5811

                     31                     32                     33
                      A                      A                      A
 Frequencies --    731.5821               739.6349               778.9545
 Red. masses --      2.7409                11.2824                 1.6402
 Frc consts  --      0.8643                 3.6365                 0.5864
 IR Inten    --     62.7675                54.8849                63.0353

                     34                     35                     36
                      A                      A                      A
 Frequencies --    855.9351               920.4232               932.4623
 Red. masses --      1.2500                10.9707                 1.3993
 Frc consts  --      0.5396                 5.4760                 0.7169
 IR Inten    --      0.6019               313.4111                 7.5161

                     37                     38                     39
                      A                      A                      A
 Frequencies --    949.1726               982.7717               998.3480
 Red. masses --      3.2125                 1.3407                 7.5591
 Frc consts  --      1.7052                 0.7629                 4.4390
 IR Inten    --    128.7971                 0.1677                56.8523

                     40                     41                     42
                      A                      A                      A
 Frequencies --   1008.4645              1018.1424              1051.0494
 Red. masses --      1.2585                 5.9920                 3.0929
 Frc consts  --      0.7541                 3.6596                 2.0131
 IR Inten    --      0.5340                 2.1401                21.4602

                     43                     44                     45
                      A                      A                      A
 Frequencies --   1057.1958              1067.2124              1071.5198
 Red. masses --      4.4214                 1.5096                 2.5444
 Frc consts  --      2.9115                 1.0130                 1.7212
 IR Inten    --    124.8557                14.4251               355.2079

                     46                     47                     48
                      A                      A                      A
 Frequencies --   1083.5175              1110.5610              1124.2377
 Red. masses --      5.1058                 1.6333                 1.2196
 Frc consts  --      3.5317                 1.1869                 0.9082
 IR Inten    --    304.9605                22.1012                 8.7078

                     49                     50                     51
                      A                      A                      A
 Frequencies --   1174.9882              1188.5231              1194.3944
 Red. masses --      1.4142                 1.0991                14.6057
 Frc consts  --      1.1503                 0.9147                12.2764
 IR Inten    --      4.3268                 0.2157               320.4740

                     52                     53                     54
                      A                      A                      A
 Frequencies --   1203.6828              1226.4728              1236.9958
 Red. masses --      1.1794                 4.3006                 4.9236
 Frc consts  --      1.0068                 3.8115                 4.4388
 IR Inten    --      0.2595               163.9849                59.1531

                     55                     56                     57
                      A                      A                      A
 Frequencies --   1247.9774              1276.8964              1282.0124
 Red. masses --      4.8679                 1.9433                 2.8708
 Frc consts  --      4.4669                 1.8668                 2.7800
 IR Inten    --     15.8873                14.5083               242.6785

                     58                     59                     60
                      A                      A                      A
 Frequencies --   1337.6147              1366.2157              1379.5223
 Red. masses --      3.4419                 2.5963                 3.4928
 Frc consts  --      3.6284                 2.8552                 3.9164
 IR Inten    --    166.5853                 0.3620               428.2852

                     61                     62                     63
                      A                      A                      A
 Frequencies --   1443.5792              1455.0217              1462.7595
 Red. masses --      1.1487                 4.4128                 1.1800
 Frc consts  --      1.4104                 5.5043                 1.4876
 IR Inten    --      1.6053               202.2786                 5.2840

                     64                     65                     66
                      A                      A                      A
 Frequencies --   1502.5666              1511.3900              1513.1666
 Red. masses --      1.0497                 2.4419                 1.0673
 Frc consts  --      1.3963                 3.2865                 1.4398
 IR Inten    --     14.4951                26.8594                18.4494

                     67                     68                     69
                      A                      A                      A
 Frequencies --   1516.4537              1527.1726              1547.7393
 Red. masses --      1.0460                 1.0475                 2.6851
 Frc consts  --      1.4172                 1.4393                 3.7897
 IR Inten    --      4.4537                16.5885               386.6287

                     70                     71                     72
                      A                      A                      A
 Frequencies --   1587.6781              1651.7545              1659.0903
 Red. masses --      6.6965                 6.3412                 5.6797
 Frc consts  --      9.9454                10.1933                 9.2112
 IR Inten    --    504.5075                 7.6617                41.0590

                     73                     74                     75
                      A                      A                      A
 Frequencies --   3027.0531              3031.5455              3114.6390
 Red. masses --      1.0480                 1.0503                 1.0893
 Frc consts  --      5.6578                 5.6869                 6.2261
 IR Inten    --     53.2723               120.9101                74.3610

                     76                     77                     78
                      A                      A                      A
 Frequencies --   3117.3937              3181.7837              3184.4817
 Red. masses --      1.0902                 1.0995                 1.0996
 Frc consts  --      6.2420                 6.5580                 6.5701
 IR Inten    --     41.1068                14.5755                13.8313

                     79                     80                     81
                      A                      A                      A
 Frequencies --   3209.9368              3219.7857              3229.2566
 Red. masses --      1.0861                 1.0900                 1.0946
 Frc consts  --      6.5935                 6.6577                 6.7255
 IR Inten    --      0.0207                22.4982                47.2950

                     82                     83                     84
                      A                      A                      A
 Frequencies --   3242.6811              3254.7181              3331.8784
 Red. masses --      1.0939                 1.0930                 1.0983
 Frc consts  --      6.7773                 6.8217                 7.1834
 IR Inten    --     10.4491                 2.7538                 6.1625

 - Thermochemistry -
 -------------------
 Temperature   298.150 Kelvin.  Pressure   1.00000 Atm.
 Atom     1 has atomic number  8 and mass  15.99491

 Molecular mass:   266.07117 amu.
 Principal axes and moments of inertia in atomic units:
                           1         2         3
     Eigenvalues --  1384.33914********************
           X            0.99370   0.08907  -0.06804
           Y            0.10819  -0.60360   0.78991
           Z           -0.02928   0.79229   0.60944
 This molecule is an asymmetric top.
 Rotational symmetry number  1.
 Warning -- assumption of classical behavior for rotation
           may cause significant error
 Rotational temperatures (Kelvin)      0.06257     0.00726     0.00690
 Rotational constants (GHZ):           1.30368     0.15128     0.14386
 Zero-point vibrational energy     598107.8 (Joules/Mol)
                                  142.95120 (Kcal/Mol)
 Warning -- explicit consideration of  24 degrees of freedom as
           vibrations may cause significant error
 Vibrational temperatures:     41.36    50.31    90.34    95.56   119.27
          (Kelvin)            153.80   191.52   229.64   329.88   337.92
                              341.68   386.24   408.55   486.58   494.79
                              540.21   588.89   600.66   607.72   677.26
                              704.98   738.67   762.93   816.00   904.57
                              956.18   962.55   991.59  1016.11  1022.10
                             1052.58  1064.17  1120.74  1231.50  1324.28
                             1341.61  1365.65  1413.99  1436.40  1450.96
                             1464.88  1512.23  1521.07  1535.48  1541.68
                             1558.94  1597.85  1617.53  1690.55  1710.02
                             1718.47  1731.83  1764.62  1779.76  1795.56
                             1837.17  1844.53  1924.53  1965.68  1984.82
                             2076.99  2093.45  2104.58  2161.86  2174.55
                             2177.11  2181.84  2197.26  2226.85  2284.31
                             2376.51  2387.06  4355.25  4361.72  4481.27
                             4485.23  4577.88  4581.76  4618.38  4632.55
                             4646.18  4665.49  4682.81  4793.83

 Zero-point correction=                           0.227807 (Hartree/Particle)
 Thermal correction to Energy=                    0.244024
 Thermal correction to Enthalpy=                  0.244968
 Thermal correction to Gibbs Free Energy=         0.182412
 Sum of electronic and zero-point Energies=          -1210.487299
 Sum of electronic and thermal Energies=             -1210.471082
 Sum of electronic and thermal Enthalpies=           -1210.470138
 Sum of electronic and thermal Free Energies=        -1210.532694

                     E (Thermal)             CV                S
                      KCal/Mol        Cal/Mol-Kelvin    Cal/Mol-Kelvin
 Total                  153.128             61.353            131.661
 Electronic               0.000              0.000              0.000
 Translational            0.889              2.981             42.635
 Rotational               0.889              2.981             33.693
 Vibrational            151.350             55.392             55.333
 Vibration     1          0.593              1.984              5.914
 Vibration     2          0.594              1.982              5.526
 Vibration     3          0.597              1.972              4.368
 Vibration     4          0.598              1.970              4.257
 Vibration     5          0.600              1.961              3.821
 Vibration     6          0.606              1.944              3.325
 Vibration     7          0.613              1.920              2.901
 Vibration     8          0.621              1.892              2.554
 Vibration     9          0.652              1.796              1.885
 Vibration    10          0.655              1.787              1.841
 Vibration    11          0.656              1.783              1.822
 Vibration    12          0.673              1.731              1.606
 Vibration    13          0.682              1.703              1.510
 Vibration    14          0.718              1.599              1.221
 Vibration    15          0.723              1.588              1.194
 Vibration    16          0.746              1.522              1.057
 Vibration    17          0.774              1.450              0.929
 Vibration    18          0.781              1.432              0.901
 Vibration    19          0.785              1.422              0.884
 Vibration    20          0.828              1.315              0.736
 Vibration    21          0.846              1.272              0.684
 Vibration    22          0.868              1.220              0.625
 Vibration    23          0.885              1.183              0.587
 Vibration    24          0.923              1.102              0.510

 Optimization completed.
    -- Stationary point found.
 Normal termination of Gaussian 16 at Thu Sep 24 17:07:59 2020.

 ----------------------------------------------------------------------
 #p b3lyp/6-31G(d) scrf=(iefpcm,read,solvent=water) geom=allcheck guess
 =read
 ----------------------------------------------------------------------

 Structure from the checkpoint file:  "SM46_m1.a.2.pdb.xyz.mst.a.w.chk"
 -------------------
 SM46_m1.a.2.pdb.xyz
 -------------------
 Charge = -1 Multiplicity = 1

 SCF Done:  E(RB3LYP) =  -1210.71504766     A.U. after    7 cycles
 Normal termination of Gaussian 16 at Thu Sep 24 17:08:37 2020.

 -----------------------------
 #p B3LYP/6-31G* geom=allcheck
 -----------------------------

 Structure from the checkpoint file:  "SM46_m1.a.2.pdb.xyz.mst.a.w.chk"
 -------------------
 SM46_m1.a.2.pdb.xyz
 -------------------
 Charge = -1 Multiplicity = 1

 SCF Done:  E(RB3LYP) =  -1210.60997389     A.U. after   15 cycles
 Normal termination of Gaussian 16 at Thu Sep 24 17:09:13 2020.
 Gaussian 16:  ES64L-G16RevB.01 20-Dec-2017

 ----------------------------------------------------------------------
 #p mp2/aug-cc-pVDZ scf=(MaxCycle=2000,NoVarAcc,NoIncFock) maxdisk=120G
 B geom=allcheck
 ----------------------------------------------------------------------

 Structure from the checkpoint file:  "SM46_m1.a.2.pdb.xyz.mst.a.w.chk"
 -------------------
 SM46_m1.a.2.pdb.xyz
 -------------------
 Charge = -1 Multiplicity = 1

                         Standard orientation:
 ---------------------------------------------------------------------
 Center     Atomic      Atomic             Coordinates (Angstroms)
 Number     Number       Type             X           Y           Z
 ---------------------------------------------------------------------
      1          8           0       -3.024353   -1.031147   -1.491317
      2         16           0       -2.890469   -0.508908   -0.104989
      3          7           0       -1.657022    0.490820    0.108207
      4          6           0       -0.376490   -0.000380    0.002967
      5          7           0       -0.008362   -1.301787   -0.257366
      6          7           0        1.304280   -1.394175   -0.277282
      7          6           0        0.794784    0.734810    0.148563
      8          7           0        1.800708   -0.168438   -0.029234
      9          6           0        3.203529    0.051271    0.007470
     10          6           0        3.711190    1.336322   -0.203742
     11          6           0        5.089159    1.544094   -0.157511
     12          6           0        5.957727    0.478582    0.084688
     13          6           0        5.439365   -0.802948    0.287295
     14          6           0        4.063811   -1.023066    0.257093
     15          7           0       -4.232983    0.514542    0.104112
     16          6           0       -4.405794    1.021593    1.467836
     17          6           0       -4.367430    1.557633   -0.916758
     18          8           0       -3.035635   -1.543719    0.953503
     19          1           0        0.970952    1.770584    0.380576
     20          1           0        3.039867    2.160262   -0.413727
     21          1           0        5.480912    2.542045   -0.320889
     22          1           0        7.029070    0.644706    0.115924
     23          1           0        6.106336   -1.636359    0.480182
     24          1           0        3.649236   -2.008177    0.425862
     25          1           0       -4.287634    0.198872    2.171760
     26          1           0       -5.420135    1.419680    1.556428
     27          1           0       -3.692386    1.819730    1.716502
     28          1           0       -4.218353    1.114800   -1.900910
     29          1           0       -3.653447    2.381168   -0.775656
     30          1           0       -5.382473    1.959934   -0.860184
 ---------------------------------------------------------------------

 SCF Done:  E(RHF) =  -1205.14319513     A.U. after   17 cycles
 E2 =    -0.2823936587D+01 EUMP2 =    -0.12079671317196D+04

 The electronic state is 1-A.
 Alpha  occ. eigenvalues --  -92.05505 -20.37206 -20.37179 -15.54968 -15.52258
 Alpha  occ. eigenvalues --  -15.46644 -15.45304 -15.38063 -11.21544 -11.17637
 Alpha  occ. eigenvalues --  -11.17442 -11.16897 -11.16850 -11.16816 -11.16396
 Alpha  occ. eigenvalues --  -11.13985 -11.13777 -11.13753  -9.01934  -6.70468
 Alpha  occ. eigenvalues --   -6.70464  -6.70400  -1.31364  -1.27449  -1.14147
 Alpha  occ. eigenvalues --   -1.12308  -1.09370  -1.06539  -1.03800  -0.95186
 Alpha  occ. eigenvalues --   -0.94034  -0.91692  -0.83860  -0.78998  -0.78443
 Alpha  occ. eigenvalues --   -0.76201  -0.70199  -0.69393  -0.65564  -0.61737
 Alpha  occ. eigenvalues --   -0.58808  -0.56022  -0.55008  -0.54301  -0.53022
 Alpha  occ. eigenvalues --   -0.52144  -0.51561  -0.50371  -0.50028  -0.48313
 Alpha  occ. eigenvalues --   -0.45337  -0.44248  -0.43345  -0.43171  -0.42860
 Alpha  occ. eigenvalues --   -0.42789  -0.39570  -0.39446  -0.35499  -0.35018
 Alpha  occ. eigenvalues --   -0.31964  -0.30913  -0.30706  -0.29195  -0.27065
 Alpha  occ. eigenvalues --   -0.26679  -0.26175  -0.25203  -0.23381  -0.14801
 Alpha virt. eigenvalues --    0.08829   0.09806   0.10918   0.11692   0.12508
 Alpha virt. eigenvalues --    0.13176   0.13751   0.14189   0.15222   0.15583
 Alpha virt. eigenvalues --    0.16281   0.16630   0.17562   0.17703   0.18049

 Mulliken charges:
               1
     1  O   -1.266218
     2  S    3.276467
     3  N   -1.073308
     4  C   -0.129283
     5  N   -0.624217
     6  N   -0.315364
     7  C    1.248965
     8  N   -0.608118
     9  C    0.921947
    10  C    0.103289
    11  C    0.698536
    12  C    0.604140
    13  C    0.591176
    14  C    0.447032
    15  N   -1.236740
    16  C    0.717240
    17  C    0.716676
    18  O   -1.265504
    19  H   -0.597415
    20  H   -0.657197
    21  H   -0.455729
    22  H   -0.463782
    23  H   -0.447251
    24  H   -0.533858
    25  H   -0.123956
    26  H   -0.199999
    27  H   -0.001865
    28  H   -0.124772
    29  H   -0.000594
    30  H   -0.200298
 Sum of Mulliken charges =  -1.00000

 Dipole moment (field-independent basis, Debye):
    X=              9.3797    Y=              7.1116    Z=              1.5382  Tot=             11.8710
 Quadrupole moment (field-independent basis, Debye-Ang):
   XX=           -147.3145   YY=           -125.1800   ZZ=           -127.5648
   XY=            -14.4986   XZ=             -2.4723   YZ=             -3.0640

 Normal termination of Gaussian 16 at Thu Sep 24 17:37:35 2020.
