 Gaussian 16, Revision B.01,

 ----------------------------------------------------------------------
 #p b3lyp/6-31G(d) opt freq NoSymm scf=(MaxCycle=2000,NoVarAcc,NoIncFoc
 k) scrf=(iefpcm,read,solvent=water)
 ----------------------------------------------------------------------

 -------------------
 SM46_m0.n.9.pdb.xyz
 -------------------
 Symbolic Z-matrix:
 Charge =  0 Multiplicity = 1

 SCF Done:  E(RB3LYP) =  -1211.18876167     A.U. after   13 cycles
 SCF Done:  E(RB3LYP) =  -1211.18880149     A.U. after    9 cycles
 SCF Done:  E(RB3LYP) =  -1211.18880151     A.U. after    8 cycles
 SCF Done:  E(RB3LYP) =  -1211.18880175     A.U. after    7 cycles
 SCF Done:  E(RB3LYP) =  -1211.18880233     A.U. after    7 cycles
 SCF Done:  E(RB3LYP) =  -1211.18880221     A.U. after    7 cycles
 SCF Done:  E(RB3LYP) =  -1211.18880157     A.U. after    7 cycles
 SCF Done:  E(RB3LYP) =  -1211.18880077     A.U. after    7 cycles
 Optimization completed.
    -- Stationary point found.
 Normal termination of Gaussian 16 at Wed Sep 23 11:28:20 2020.

 --------------------------------------------------------------------
 #P Geom=AllCheck Guess=TCheck SCRF=Check GenChk RB3LYP/6-31G(d) Freq
 --------------------------------------------------------------------

 Structure from the checkpoint file:  "SM46_m0.n.9.pdb.xyz.mst.n.w.chk"
 -------------------
 SM46_m0.n.9.pdb.xyz
 -------------------
 Charge =  0 Multiplicity = 1

 SCF Done:  E(RB3LYP) =  -1211.18880077     A.U. after    1 cycles

  Exact polarizability: 283.876  16.767 229.773  -6.087  -3.461 118.807
 Approx polarizability: 307.005  19.206 273.001 -10.530  -2.198 143.719

                      1                      2                      3
                      A                      A                      A
 Frequencies --     21.0364                36.6158                40.8374
 Red. masses --      4.1991                 5.5078                 4.5887
 Frc consts  --      0.0011                 0.0044                 0.0045
 IR Inten    --      1.0614                 4.4603                 0.6969

                      4                      5                      6
                      A                      A                      A
 Frequencies --     61.1807                83.1808                98.5794
 Red. masses --      4.9995                 3.2528                 5.3836
 Frc consts  --      0.0110                 0.0133                 0.0308
 IR Inten    --      5.6549                 6.4473                 1.5846

                      7                      8                      9
                      A                      A                      A
 Frequencies --    119.3908               176.5524               211.3373
 Red. masses --      5.8132                 1.6947                 1.5066
 Frc consts  --      0.0488                 0.0311                 0.0396
 IR Inten    --      0.7236                 8.6255                 8.2256

                     10                     11                     12
                      A                      A                      A
 Frequencies --    224.5732               237.5018               254.1704
 Red. masses --      3.6250                 1.4472                 5.2352
 Frc consts  --      0.1077                 0.0481                 0.1993
 IR Inten    --      7.2281                 4.3302                 1.1188

                     13                     14                     15
                      A                      A                      A
 Frequencies --    271.1368               319.2646               340.5216
 Red. masses --      5.4215                 4.4307                 5.6103
 Frc consts  --      0.2348                 0.2661                 0.3833
 IR Inten    --      0.8904                 9.1012                13.0498

                     16                     17                     18
                      A                      A                      A
 Frequencies --    358.7128               389.8915               418.1873
 Red. masses --      2.9199                 8.0493                 3.3039
 Frc consts  --      0.2214                 0.7209                 0.3404
 IR Inten    --      2.1667                 7.8518                 9.1123

                     19                     20                     21
                      A                      A                      A
 Frequencies --    419.7447               458.0974               475.9677
 Red. masses --      3.5063                 4.8174                 5.6778
 Frc consts  --      0.3640                 0.5956                 0.7579
 IR Inten    --     13.3766                17.8490                21.6361

                     22                     23                     24
                      A                      A                      A
 Frequencies --    492.8902               527.5954               543.8928
 Red. masses --      3.3676                 3.3370                 5.2497
 Frc consts  --      0.4820                 0.5473                 0.9150
 IR Inten    --     41.8110                81.0306                31.1665

                     25                     26                     27
                      A                      A                      A
 Frequencies --    593.7135               627.9799               656.0158
 Red. masses --      5.2175                 6.3201                 4.2888
 Frc consts  --      1.0836                 1.4685                 1.0875
 IR Inten    --    205.5732                 0.6791                85.5204

                     28                     29                     30
                      A                      A                      A
 Frequencies --    678.6841               696.4911               705.4851
 Red. masses --      3.9008                 5.4310                 2.4731
 Frc consts  --      1.0586                 1.5523                 0.7252
 IR Inten    --     45.3349                19.5774                22.0713

                     31                     32                     33
                      A                      A                      A
 Frequencies --    713.8896               779.3793               800.4584
 Red. masses --      7.1587                 1.6250                 1.5683
 Frc consts  --      2.1495                 0.5816                 0.5921
 IR Inten    --     26.7629                75.1849                42.7343

                     34                     35                     36
                      A                      A                      A
 Frequencies --    818.6200               854.6120               888.0173
 Red. masses --      4.0692                 1.2502                 3.4357
 Frc consts  --      1.6067                 0.5380                 1.5963
 IR Inten    --      3.1338                 0.3374               219.2903

                     37                     38                     39
                      A                      A                      A
 Frequencies --    937.0292               940.9838               983.1540
 Red. masses --      1.3892                 3.1711                 1.3431
 Frc consts  --      0.7187                 1.6543                 0.7649
 IR Inten    --      7.0763               204.2909                 0.3134

                     40                     41                     42
                      A                      A                      A
 Frequencies --   1007.1974              1011.5462              1020.0642
 Red. masses --      7.4052                 1.2685                 6.0483
 Frc consts  --      4.4261                 0.7648                 3.7080
 IR Inten    --     30.2614                 0.2765                 0.6889

                     43                     44                     45
                      A                      A                      A
 Frequencies --   1049.2811              1058.7203              1065.0395
 Red. masses --      2.8916                 2.3817                 1.6212
 Frc consts  --      1.8757                 1.5729                 1.0835
 IR Inten    --     14.9905               146.3164                28.2183

                     46                     47                     48
                      A                      A                      A
 Frequencies --   1066.9958              1103.1853              1108.9817
 Red. masses --      3.3806                11.6282                 1.5598
 Frc consts  --      2.2676                 8.3380                 1.1302
 IR Inten    --      0.9951               332.6365                12.9070

                     49                     50                     51
                      A                      A                      A
 Frequencies --   1129.6180              1174.8959              1190.0165
 Red. masses --      1.2320                 1.3737                 1.1147
 Frc consts  --      0.9263                 1.1172                 0.9301
 IR Inten    --      4.3471                 5.2261                 0.2606

                     52                     53                     54
                      A                      A                      A
 Frequencies --   1199.1683              1215.2727              1227.8557
 Red. masses --      1.1894                 3.5492                 3.7991
 Frc consts  --      1.0077                 3.0884                 3.3747
 IR Inten    --      0.3446                29.7638                 8.8016

                     55                     56                     57
                      A                      A                      A
 Frequencies --   1236.5510              1275.7308              1284.4371
 Red. masses --      2.2019                 2.6651                 4.2246
 Frc consts  --      1.9837                 2.5556                 4.1064
 IR Inten    --     11.0836               170.6051               267.6506

                     58                     59                     60
                      A                      A                      A
 Frequencies --   1291.6667              1329.3908              1365.4581
 Red. masses --     10.0099                 2.7649                 2.7387
 Frc consts  --      9.8397                 2.8790                 3.0085
 IR Inten    --     71.3103                30.9631                 1.6746

                     61                     62                     63
                      A                      A                      A
 Frequencies --   1367.5271              1445.9149              1450.2812
 Red. masses --      2.2420                 1.9181                 1.3642
 Frc consts  --      2.4703                 2.3627                 1.6906
 IR Inten    --      6.4365               156.5727                58.9754

                     64                     65                     66
                      A                      A                      A
 Frequencies --   1469.7865              1487.4714              1502.3005
 Red. masses --      1.1616                 2.2294                 1.0451
 Frc consts  --      1.4785                 2.9062                 1.3897
 IR Inten    --      9.1540                29.8367                 9.9811

                     67                     68                     69
                      A                      A                      A
 Frequencies --   1512.4439              1515.0829              1516.2205
 Red. masses --      1.0490                 2.1566                 1.1526
 Frc consts  --      1.4138                 2.9167                 1.5612
 IR Inten    --     11.0365                46.9129                14.7200

                     70                     71                     72
                      A                      A                      A
 Frequencies --   1529.1652              1549.8674              1607.4173
 Red. masses --      1.0479                 2.7569                 6.4364
 Frc consts  --      1.4437                 3.9018                 9.7983
 IR Inten    --     17.7471                95.6463                92.3482

                     73                     74                     75
                      A                      A                      A
 Frequencies --   1655.5400              1657.7887              3058.5436
 Red. masses --      6.4199                 5.7001                 1.0447
 Frc consts  --     10.3671                 9.2298                 5.7581
 IR Inten    --     14.0163                21.1058                53.3310

                     76                     77                     78
                      A                      A                      A
 Frequencies --   3062.8558              3145.1127              3147.0791
 Red. masses --      1.0417                 1.0951                 1.0952
 Frc consts  --      5.7575                 6.3822                 6.3910
 IR Inten    --     81.1413                45.7690                 5.5412

                     79                     80                     81
                      A                      A                      A
 Frequencies --   3186.4335              3206.6755              3213.1720
 Red. masses --      1.1043                 1.1019                 1.0864
 Frc consts  --      6.6062                 6.6757                 6.6085
 IR Inten    --     11.2585                 6.2652                 0.0637

                     82                     83                     84
                      A                      A                      A
 Frequencies --   3222.7719              3230.8347              3240.0494
 Red. masses --      1.0898                 1.0939                 1.0958
 Frc consts  --      6.6687                 6.7273                 6.7779
 IR Inten    --     17.5433                41.5935                11.4158

                     85                     86                     87
                      A                      A                      A
 Frequencies --   3255.2971              3347.2439              3520.1193
 Red. masses --      1.0933                 1.1004                 1.0757
 Frc consts  --      6.8260                 7.2637                 7.8537
 IR Inten    --      2.1763                 8.8984               180.9283

 - Thermochemistry -
 -------------------
 Temperature   298.150 Kelvin.  Pressure   1.00000 Atm.
 Atom     1 has atomic number  8 and mass  15.99491

 Molecular mass:   267.07900 amu.
 Principal axes and moments of inertia in atomic units:
                           1         2         3
     Eigenvalues --  2009.508469628.14046**********
           X            0.99992  -0.01114  -0.00555
           Y            0.01112   0.99993  -0.00323
           Z            0.00559   0.00317   0.99998
 This molecule is an asymmetric top.
 Rotational symmetry number  1.
 Warning -- assumption of classical behavior for rotation
           may cause significant error
 Rotational temperatures (Kelvin)      0.04310     0.00900     0.00804
 Rotational constants (GHZ):           0.89810     0.18744     0.16742
 Zero-point vibrational energy     632641.8 (Joules/Mol)
                                  151.20501 (Kcal/Mol)
 Warning -- explicit consideration of  25 degrees of freedom as
           vibrations may cause significant error
 Vibrational temperatures:     30.27    52.68    58.76    88.03   119.68
          (Kelvin)            141.83   171.78   254.02   304.07   323.11
                              341.71   365.69   390.11   459.35   489.93
                              516.11   560.97   601.68   603.92   659.10
                              684.81   709.16   759.09   782.54   854.22
                              903.52   943.86   976.48  1002.10  1015.04
                             1027.13  1121.35  1151.68  1177.81  1229.60
                             1277.66  1348.18  1353.87  1414.54  1449.13
                             1455.39  1467.64  1509.68  1523.26  1532.35
                             1535.17  1587.24  1595.58  1625.27  1690.41
                             1712.17  1725.34  1748.51  1766.61  1779.12
                             1835.49  1848.02  1858.42  1912.70  1964.59
                             1967.57  2080.35  2086.63  2114.69  2140.14
                             2161.48  2176.07  2179.87  2181.50  2200.13
                             2229.91  2312.71  2381.95  2385.19  4400.56
                             4406.77  4525.12  4527.94  4584.57  4613.69
                             4623.04  4636.85  4648.45  4661.71  4683.65
                             4815.94  5064.67

 Zero-point correction=                           0.240961 (Hartree/Particle)
 Thermal correction to Energy=                    0.257573
 Thermal correction to Enthalpy=                  0.258517
 Thermal correction to Gibbs Free Energy=         0.194585
 Sum of electronic and zero-point Energies=          -1210.947840
 Sum of electronic and thermal Energies=             -1210.931228
 Sum of electronic and thermal Enthalpies=           -1210.930284
 Sum of electronic and thermal Free Energies=        -1210.994216

                     E (Thermal)             CV                S
                      KCal/Mol        Cal/Mol-Kelvin    Cal/Mol-Kelvin
 Total                  161.630             62.576            134.557
 Electronic               0.000              0.000              0.000
 Translational            0.889              2.981             42.646
 Rotational               0.889              2.981             33.700
 Vibrational            159.852             56.615             58.211
 Vibration     1          0.593              1.985              6.534
 Vibration     2          0.594              1.982              5.434
 Vibration     3          0.594              1.981              5.218
 Vibration     4          0.597              1.973              4.419
 Vibration     5          0.600              1.961              3.814
 Vibration     6          0.604              1.950              3.482
 Vibration     7          0.609              1.933              3.110
 Vibration     8          0.628              1.871              2.365
 Vibration     9          0.643              1.824              2.032
 Vibration    10          0.649              1.804              1.922
 Vibration    11          0.656              1.783              1.822
 Vibration    12          0.665              1.756              1.701
 Vibration    13          0.675              1.726              1.589
 Vibration    14          0.705              1.637              1.314
 Vibration    15          0.720              1.595              1.210
 Vibration    16          0.734              1.557              1.128
 Vibration    17          0.758              1.492              1.001
 Vibration    18          0.781              1.431              0.898
 Vibration    19          0.782              1.427              0.893
 Vibration    20          0.816              1.343              0.772
 Vibration    21          0.833              1.303              0.721
 Vibration    22          0.849              1.266              0.676
 Vibration    23          0.883              1.189              0.593
 Vibration    24          0.899              1.153              0.557
 Vibration    25          0.951              1.045              0.461

                           ! Non-Optimized Parameters !
 Normal termination of Gaussian 16 at Wed Sep 23 11:36:58 2020.

 ----------------------------------------------------------------------
 #p b3lyp/6-31G(d) scrf=(iefpcm,read,solvent=water) geom=allcheck guess
 =read
 ----------------------------------------------------------------------

 Structure from the checkpoint file:  "SM46_m0.n.9.pdb.xyz.mst.n.w.chk"
 -------------------
 SM46_m0.n.9.pdb.xyz
 -------------------
 Charge =  0 Multiplicity = 1

 SCF Done:  E(RB3LYP) =  -1211.18880146     A.U. after    4 cycles
 Normal termination of Gaussian 16 at Wed Sep 23 11:37:25 2020.

 -----------------------------
 #p B3LYP/6-31G* geom=allcheck
 -----------------------------

 Structure from the checkpoint file:  "SM46_m0.n.9.pdb.xyz.mst.n.w.chk"
 -------------------
 SM46_m0.n.9.pdb.xyz
 -------------------
 Charge =  0 Multiplicity = 1

 SCF Done:  E(RB3LYP) =  -1211.16576670     A.U. after   15 cycles
 Normal termination of Gaussian 16 at Wed Sep 23 11:38:02 2020.
 Gaussian 16:  ES64L-G16RevB.01 20-Dec-2017

 ----------------------------------------------------------------------
 #p mp2/aug-cc-pVDZ scf=(MaxCycle=2000,NoVarAcc,NoIncFock) maxdisk=120G
 B geom=allcheck
 ----------------------------------------------------------------------

 Structure from the checkpoint file:  "SM46_m0.n.9.pdb.xyz.mst.n.w.chk"
 -------------------
 SM46_m0.n.9.pdb.xyz
 -------------------
 Charge =  0 Multiplicity = 1

                         Standard orientation:
 ---------------------------------------------------------------------
 Center     Atomic      Atomic             Coordinates (Angstroms)
 Number     Number       Type             X           Y           Z
 ---------------------------------------------------------------------
      1          8           0       -2.517059   -0.287232   -1.740649
      2         16           0       -2.948231   -0.295061   -0.338323
      3          7           0       -1.900752   -1.179031    0.660329
      4          6           0       -0.523275   -1.171956    0.371155
      5          7           0        0.128788   -2.289992   -0.048054
      6          7           0        1.399284   -2.008247   -0.189974
      7          6           0        0.384552   -0.141646    0.489173
      8          7           0        1.564510   -0.701934    0.120049
      9          6           0        2.848453   -0.088126    0.039501
     10          6           0        2.939176    1.289815   -0.165310
     11          6           0        4.197569    1.885318   -0.235334
     12          6           0        5.352416    1.110163   -0.115449
     13          6           0        5.246329   -0.268585    0.081677
     14          6           0        3.994751   -0.876321    0.167157
     15          7           0       -2.660497    1.241250    0.257115
     16          6           0       -2.950430    2.337255   -0.684919
     17          6           0       -3.159641    1.473705    1.623223
     18          8           0       -4.282324   -0.819902   -0.012295
     19          1           0       -2.277417   -2.121841    0.778174
     20          1           0        0.287119    0.881177    0.806319
     21          1           0        2.041583    1.885209   -0.281695
     22          1           0        4.270825    2.955452   -0.394379
     23          1           0        6.329287    1.577251   -0.175504
     24          1           0        6.139494   -0.875779    0.179434
     25          1           0        3.897684   -1.941129    0.333610
     26          1           0       -2.508486    2.109133   -1.652244
     27          1           0       -2.484783    3.237569   -0.280785
     28          1           0       -4.025826    2.515652   -0.800952
     29          1           0       -2.854470    0.648095    2.265359
     30          1           0       -4.249707    1.581968    1.651997
     31          1           0       -2.697273    2.393212    1.985893
 ---------------------------------------------------------------------

 SCF Done:  E(RHF) =  -1205.69989446     A.U. after   17 cycles
 E2 =    -0.2809820322D+01 EUMP2 =    -0.12085097147777D+04

 The electronic state is 1-A.
 Alpha  occ. eigenvalues --  -92.24868 -20.56609 -20.56494 -15.68930 -15.66198
 Alpha  occ. eigenvalues --  -15.63101 -15.62452 -15.62123 -11.31947 -11.31671
 Alpha  occ. eigenvalues --  -11.30299 -11.28715 -11.28515 -11.26972 -11.26721
 Alpha  occ. eigenvalues --  -11.26541 -11.26340 -11.26114  -9.21363  -6.89905
 Alpha  occ. eigenvalues --   -6.89859  -6.89824  -1.47398  -1.45806  -1.34363
 Alpha  occ. eigenvalues --   -1.27910  -1.26163  -1.23522  -1.16721  -1.08931
 Alpha  occ. eigenvalues --   -1.04481  -1.03999  -0.99103  -0.96346  -0.90544
 Alpha  occ. eigenvalues --   -0.87932  -0.84234  -0.82345  -0.80780  -0.77062
 Alpha  occ. eigenvalues --   -0.73224  -0.71457  -0.70613  -0.68583  -0.67414
 Alpha  occ. eigenvalues --   -0.67086  -0.66013  -0.64654  -0.63359  -0.62394
 Alpha  occ. eigenvalues --   -0.61471  -0.61271  -0.58827  -0.57898  -0.55306
 Alpha  occ. eigenvalues --   -0.54620  -0.54176  -0.53606  -0.52360  -0.51771
 Alpha  occ. eigenvalues --   -0.51020  -0.49998  -0.48573  -0.47161  -0.45392
 Alpha  occ. eigenvalues --   -0.43878  -0.41842  -0.36401  -0.36055  -0.33192
 Alpha virt. eigenvalues --    0.02188   0.03113   0.03700   0.04250   0.04575
 Alpha virt. eigenvalues --    0.05052   0.05901   0.06015   0.06543   0.06834
 Alpha virt. eigenvalues --    0.07551   0.07566   0.07924   0.08832   0.09426

 Mulliken charges:
               1
     1  O   -1.143384
     2  S    3.312657
     3  N   -0.932580
     4  C    0.477685
     5  N   -0.582046
     6  N   -0.415894
     7  C    1.183424
     8  N   -0.728252
     9  C    0.932360
    10  C    0.330197
    11  C    0.526507
    12  C    0.603516
    13  C    0.554241
    14  C    0.530314
    15  N   -1.077985
    16  C    0.760066
    17  C    0.715818
    18  O   -1.169220
    19  H   -0.066750
    20  H   -0.606474
    21  H   -0.644406
    22  H   -0.445121
    23  H   -0.444264
    24  H   -0.433309
    25  H   -0.526085
    26  H   -0.140114
    27  H   -0.161676
    28  H   -0.093831
    29  H   -0.095416
    30  H   -0.065253
    31  H   -0.154726
 Sum of Mulliken charges =  -0.00000

 Dipole moment (field-independent basis, Debye):
    X=              3.5494    Y=              6.0402    Z=              3.5785  Tot=              7.8669
 Quadrupole moment (field-independent basis, Debye-Ang):
   XX=           -110.2114   YY=           -108.0958   ZZ=           -120.1966
   XY=             -6.8920   XZ=             -7.2132   YZ=             -3.9384

 Normal termination of Gaussian 16 at Wed Sep 23 12:23:45 2020.
