 Gaussian 16, Revision B.01,

 ----------------------------------------------------------------------
 #p b3lyp/6-31G(d) opt freq NoSymm scf=(MaxCycle=2000,NoVarAcc,NoIncFoc
 k) scrf=(iefpcm,read,solvent=water)
 ----------------------------------------------------------------------

 -------------------
 SM46_m3.b.2.pdb.xyz
 -------------------
 Symbolic Z-matrix:
 Charge =  2 Multiplicity = 1

 SCF Done:  E(RB3LYP) =  -1212.06108506     A.U. after   13 cycles
 SCF Done:  E(RB3LYP) =  -1212.06108573     A.U. after    8 cycles
 SCF Done:  E(RB3LYP) =  -1212.06107072     A.U. after    9 cycles
 SCF Done:  E(RB3LYP) =  -1212.06109538     A.U. after    9 cycles
 SCF Done:  E(RB3LYP) =  -1212.06109457     A.U. after    7 cycles
 SCF Done:  E(RB3LYP) =  -1212.06109436     A.U. after    7 cycles
 SCF Done:  E(RB3LYP) =  -1212.06109531     A.U. after    7 cycles
 SCF Done:  E(RB3LYP) =  -1212.06109483     A.U. after    6 cycles
 Optimization completed.
    -- Stationary point found.
 Normal termination of Gaussian 16 at Mon Sep 28 08:30:25 2020.

 --------------------------------------------------------------------
 #P Geom=AllCheck Guess=TCheck SCRF=Check GenChk RB3LYP/6-31G(d) Freq
 --------------------------------------------------------------------

 Structure from the checkpoint file:  "SM46_m3.b.2.pdb.xyz.mst.b.w.chk"
 -------------------
 SM46_m3.b.2.pdb.xyz
 -------------------
 Charge =  2 Multiplicity = 1

 SCF Done:  E(RB3LYP) =  -1212.06109483     A.U. after    1 cycles

  Exact polarizability: 301.544   0.225 209.568  11.196 -12.752 119.184
 Approx polarizability: 312.378  -4.018 264.784  14.355 -16.863 142.471

                      1                      2                      3
                      A                      A                      A
 Frequencies --     34.0643                45.7193                72.5182
 Red. masses --      5.8889                 4.1954                 5.2910
 Frc consts  --      0.0040                 0.0052                 0.0164
 IR Inten    --      1.0696                 3.1691                 3.3970

                      4                      5                      6
                      A                      A                      A
 Frequencies --     88.1602                97.4858               114.8952
 Red. masses --      4.0074                 3.9178                 5.8285
 Frc consts  --      0.0184                 0.0219                 0.0453
 IR Inten    --      3.7177                 1.5456                 3.2235

                      7                      8                      9
                      A                      A                      A
 Frequencies --    158.5795               185.5741               235.5705
 Red. masses --      5.6174                 4.9044                 3.0999
 Frc consts  --      0.0832                 0.0995                 0.1014
 IR Inten    --      2.2548                 6.7843                 0.5959

                     10                     11                     12
                      A                      A                      A
 Frequencies --    256.9888               264.1275               273.8482
 Red. masses --      4.4600                 1.2578                 4.6873
 Frc consts  --      0.1735                 0.0517                 0.2071
 IR Inten    --      2.0647                 1.1344                15.5704

                     13                     14                     15
                      A                      A                      A
 Frequencies --    306.2138               311.1442               371.8911
 Red. masses --      6.1285                 3.2005                 4.0137
 Frc consts  --      0.3386                 0.1826                 0.3271
 IR Inten    --      7.0103                 5.4971                25.9165

                     16                     17                     18
                      A                      A                      A
 Frequencies --    392.0080               414.7000               420.1071
 Red. masses --      4.1595                 3.2630                 2.9645
 Frc consts  --      0.3766                 0.3306                 0.3083
 IR Inten    --     17.2418                20.3373                 1.1310

                     19                     20                     21
                      A                      A                      A
 Frequencies --    423.0968               450.5590               461.2379
 Red. masses --      2.6783                 1.9447                 4.6877
 Frc consts  --      0.2825                 0.2326                 0.5876
 IR Inten    --      8.8266                95.3009                40.1269

                     22                     23                     24
                      A                      A                      A
 Frequencies --    490.1614               498.4966               538.9278
 Red. masses --      2.9429                 1.9890                 4.2828
 Frc consts  --      0.4166                 0.2912                 0.7329
 IR Inten    --      3.4205                14.5632                62.4161

                     25                     26                     27
                      A                      A                      A
 Frequencies --    556.5781               607.5138               626.7965
 Red. masses --      6.3379                 5.1103                 6.4689
 Frc consts  --      1.1568                 1.1112                 1.4974
 IR Inten    --    108.8583               208.6584                 1.5908

                     28                     29                     30
                      A                      A                      A
 Frequencies --    666.7392               697.2435               702.9061
 Red. masses --      4.2785                 3.3854                 3.0354
 Frc consts  --      1.1206                 0.9697                 0.8836
 IR Inten    --     29.4720                 6.4900                28.1192

                     31                     32                     33
                      A                      A                      A
 Frequencies --    708.7425               755.3218               781.3205
 Red. masses --      6.4132                 1.1346                 1.6063
 Frc consts  --      1.8980                 0.3814                 0.5778
 IR Inten    --     60.8041               161.8762                77.6112

                     34                     35                     36
                      A                      A                      A
 Frequencies --    805.5297               854.8400               861.3013
 Red. masses --      2.7509                 1.2745                 1.7358
 Frc consts  --      1.0517                 0.5487                 0.7587
 IR Inten    --     37.8085                 6.4298                19.5638

                     37                     38                     39
                      A                      A                      A
 Frequencies --    864.9764               874.7495               949.5901
 Red. masses --      3.7646                 4.2162                 1.3602
 Frc consts  --      1.6595                 1.9008                 0.7227
 IR Inten    --     75.9455               168.9423                 6.3985

                     40                     41                     42
                      A                      A                      A
 Frequencies --    990.3832              1006.4716              1008.8495
 Red. masses --      1.3458                 6.6773                 2.9379
 Frc consts  --      0.7778                 3.9852                 1.7618
 IR Inten    --      0.3202                 8.7374                31.9722

                     43                     44                     45
                      A                      A                      A
 Frequencies --   1020.9750              1022.9967              1055.0453
 Red. masses --      1.2963                 6.1383                 2.2128
 Frc consts  --      0.7961                 3.7848                 1.4512
 IR Inten    --      0.2779                 1.4508                 5.1975

                     46                     47                     48
                      A                      A                      A
 Frequencies --   1067.2646              1079.7583              1111.1957
 Red. masses --      1.1053                 2.7206                 2.6182
 Frc consts  --      0.7418                 1.8688                 1.9047
 IR Inten    --     18.3645                84.8118                 0.9155

                     49                     50                     51
                      A                      A                      A
 Frequencies --   1117.9358              1148.8908              1162.2617
 Red. masses --      1.6343                10.5162                 1.6042
 Frc consts  --      1.2034                 8.1783                 1.2768
 IR Inten    --     26.9935               217.5816                 4.5535

                     52                     53                     54
                      A                      A                      A
 Frequencies --   1181.8457              1196.1412              1207.7922
 Red. masses --      1.3340                 1.0947                 1.1409
 Frc consts  --      1.0978                 0.9228                 0.9806
 IR Inten    --     47.2621                 0.0237                 3.5706

                     55                     56                     57
                      A                      A                      A
 Frequencies --   1240.1476              1251.6800              1264.8790
 Red. masses --      1.7908                 3.4820                 1.6183
 Frc consts  --      1.6227                 3.2141                 1.5255
 IR Inten    --      9.4303                24.7554                 3.4698

                     58                     59                     60
                      A                      A                      A
 Frequencies --   1348.1262              1358.7228              1371.1081
 Red. masses --      2.0873                 3.8934                 4.2521
 Frc consts  --      2.2351                 4.2349                 4.7097
 IR Inten    --     27.8040                20.6594                35.0195

                     61                     62                     63
                      A                      A                      A
 Frequencies --   1376.8436              1382.2022              1394.3813
 Red. masses --      2.5484                 1.2635                 1.2908
 Frc consts  --      2.8463                 1.4223                 1.4787
 IR Inten    --     83.2985                53.6422                27.4586

                     64                     65                     66
                      A                      A                      A
 Frequencies --   1418.9181              1419.4822              1455.5387
 Red. masses --      3.6277                 2.5574                 1.1841
 Frc consts  --      4.3032                 3.0360                 1.4781
 IR Inten    --    228.4687                50.1201                 1.1477

                     67                     68                     69
                      A                      A                      A
 Frequencies --   1475.1418              1476.6112              1503.9540
 Red. masses --      1.7454                 1.4111                 1.3204
 Frc consts  --      2.2377                 1.8128                 1.7596
 IR Inten    --     11.7340                 2.1368                16.1059

                     70                     71                     72
                      A                      A                      A
 Frequencies --   1510.0694              1519.5163              1523.8059
 Red. masses --      1.4174                 2.1617                 1.0932
 Frc consts  --      1.9044                 2.9407                 1.4956
 IR Inten    --      9.3746                28.0765                31.2206

                     73                     74                     75
                      A                      A                      A
 Frequencies --   1526.1950              1542.4043              1602.4430
 Red. masses --      1.1050                 2.3659                 1.1312
 Frc consts  --      1.5165                 3.3163                 1.7114
 IR Inten    --     38.8440                33.1333                79.1834

                     76                     77                     78
                      A                      A                      A
 Frequencies --   1648.7682              1654.9246              1668.1841
 Red. masses --      4.5135                 5.3000                 4.7006
 Frc consts  --      7.2290                 8.5522                 7.7071
 IR Inten    --    107.1329                28.3559               139.2417

                     79                     80                     81
                      A                      A                      A
 Frequencies --   3129.3683              3132.6112              3223.0633
 Red. masses --      1.0290                 1.0296                 1.0869
 Frc consts  --      5.9374                 5.9532                 6.6524
 IR Inten    --      2.5976                 3.8121                 0.2553

                     82                     83                     84
                      A                      A                      A
 Frequencies --   3226.7840              3228.8241              3232.2854
 Red. masses --      1.1084                 1.1086                 1.0901
 Frc consts  --      6.7999                 6.8097                 6.7099
 IR Inten    --      0.6315                 3.5764                12.2224

                     85                     86                     87
                      A                      A                      A
 Frequencies --   3239.9939              3241.4298              3244.3943
 Red. masses --      1.0939                 1.1107                 1.1096
 Frc consts  --      6.7656                 6.8755                 6.8815
 IR Inten    --     29.5942                 2.5707                 1.6227

                     88                     89                     90
                      A                      A                      A
 Frequencies --   3248.8715              3258.6655              3344.3364
 Red. masses --      1.0956                 1.0943                 1.0777
 Frc consts  --      6.8137                 6.8467                 7.1018
 IR Inten    --      7.4295                 1.2553               321.8491

                     91                     92                     93
                      A                      A                      A
 Frequencies --   3355.5962              3468.2296              3500.6583
 Red. masses --      1.1024                 1.0775                 1.0864
 Frc consts  --      7.3134                 7.6364                 7.8441
 IR Inten    --     32.8474               354.6254               611.3823

 - Thermochemistry -
 -------------------
 Temperature   298.150 Kelvin.  Pressure   1.00000 Atm.
 Atom     1 has atomic number  8 and mass  15.99491

 Molecular mass:   269.09465 amu.
 Principal axes and moments of inertia in atomic units:
                           1         2         3
     Eigenvalues --  1453.13523********************
           X            0.99819   0.05181   0.03065
           Y           -0.04462   0.97857  -0.20105
           Z           -0.04040   0.19931   0.97910
 This molecule is an asymmetric top.
 Rotational symmetry number  1.
 Warning -- assumption of classical behavior for rotation
           may cause significant error
 Rotational temperatures (Kelvin)      0.05960     0.00742     0.00713
 Rotational constants (GHZ):           1.24196     0.15463     0.14849
 Zero-point vibrational energy     709428.5 (Joules/Mol)
                                  169.55749 (Kcal/Mol)
 Warning -- explicit consideration of  26 degrees of freedom as
           vibrations may cause significant error
 Vibrational temperatures:     49.01    65.78   104.34   126.84   140.26
          (Kelvin)            165.31   228.16   267.00   338.93   369.75
                              380.02   394.01   440.57   447.67   535.07
                              564.01   596.66   604.44   608.74   648.25
                              663.62   705.23   717.23   775.40   800.79
                              874.08   901.82   959.29  1003.18  1011.33
                             1019.72  1086.74  1124.15  1158.98  1229.92
                             1239.22  1244.51  1258.57  1366.25  1424.94
                             1448.09  1451.51  1468.96  1471.86  1517.97
                             1535.56  1553.53  1598.76  1608.46  1653.00
                             1672.24  1700.41  1720.98  1737.74  1784.30
                             1800.89  1819.88  1939.65  1954.90  1972.72
                             1980.97  1988.68  2006.20  2041.51  2042.32
                             2094.20  2122.40  2124.51  2163.85  2172.65
                             2186.25  2192.42  2195.85  2219.18  2305.56
                             2372.21  2381.07  2400.14  4502.46  4507.13
                             4637.27  4642.62  4645.56  4650.54  4661.63
                             4663.69  4667.96  4674.40  4688.49  4811.75
                             4827.95  4990.01  5036.67

 Zero-point correction=                           0.270207 (Hartree/Particle)
 Thermal correction to Energy=                    0.286433
 Thermal correction to Enthalpy=                  0.287378
 Thermal correction to Gibbs Free Energy=         0.225908
 Sum of electronic and zero-point Energies=          -1211.790888
 Sum of electronic and thermal Energies=             -1211.774662
 Sum of electronic and thermal Enthalpies=           -1211.773717
 Sum of electronic and thermal Free Energies=        -1211.835187

                     E (Thermal)             CV                S
                      KCal/Mol        Cal/Mol-Kelvin    Cal/Mol-Kelvin
 Total                  179.740             63.320            129.374
 Electronic               0.000              0.000              0.000
 Translational            0.889              2.981             42.669
 Rotational               0.889              2.981             33.688
 Vibrational            177.962             57.358             53.017
 Vibration     1          0.594              1.983              5.577
 Vibration     2          0.595              1.979              4.994
 Vibration     3          0.599              1.967              4.084
 Vibration     4          0.601              1.958              3.700
 Vibration     5          0.603              1.951              3.504
 Vibration     6          0.608              1.937              3.184
 Vibration     7          0.621              1.893              2.567
 Vibration     8          0.632              1.860              2.272
 Vibration     9          0.655              1.786              1.836
 Vibration    10          0.667              1.751              1.682
 Vibration    11          0.671              1.739              1.634
 Vibration    12          0.676              1.722              1.572
 Vibration    13          0.697              1.662              1.383
 Vibration    14          0.700              1.652              1.356
 Vibration    15          0.744              1.530              1.072
 Vibration    16          0.759              1.487              0.992
 Vibration    17          0.778              1.438              0.910
 Vibration    18          0.783              1.427              0.892
 Vibration    19          0.785              1.420              0.882
 Vibration    20          0.809              1.360              0.794
 Vibration    21          0.819              1.336              0.763
 Vibration    22          0.846              1.272              0.683
 Vibration    23          0.854              1.253              0.662
 Vibration    24          0.894              1.164              0.568
 Vibration    25          0.912              1.125              0.531
 Vibration    26          0.966              1.016              0.437

 Optimization completed.
    -- Stationary point found.
 Normal termination of Gaussian 16 at Mon Sep 28 08:39:29 2020.

 ----------------------------------------------------------------------
 #p b3lyp/6-31G(d) scrf=(iefpcm,read,solvent=water) geom=allcheck guess
 =read
 ----------------------------------------------------------------------

 Structure from the checkpoint file:  "SM46_m3.b.2.pdb.xyz.mst.b.w.chk"
 -------------------
 SM46_m3.b.2.pdb.xyz
 -------------------
 Charge =  2 Multiplicity = 1

 SCF Done:  E(RB3LYP) =  -1212.06081339     A.U. after    8 cycles
 Normal termination of Gaussian 16 at Mon Sep 28 08:40:08 2020.

 -----------------------------
 #p B3LYP/6-31G* geom=allcheck
 -----------------------------

 Structure from the checkpoint file:  "SM46_m3.b.2.pdb.xyz.mst.b.w.chk"
 -------------------
 SM46_m3.b.2.pdb.xyz
 -------------------
 Charge =  2 Multiplicity = 1

 SCF Done:  E(RB3LYP) =  -1211.75877607     A.U. after   16 cycles
 Normal termination of Gaussian 16 at Mon Sep 28 08:40:52 2020.
 Gaussian 16:  ES64L-G16RevB.01 20-Dec-2017

 ----------------------------------------------------------------------
 #p mp2/aug-cc-pVDZ scf=(MaxCycle=2000,NoVarAcc,NoIncFock) maxdisk=120G
 B geom=allcheck
 ----------------------------------------------------------------------

 Structure from the checkpoint file:  "SM46_m3.b.2.pdb.xyz.mst.b.w.chk"
 -------------------
 SM46_m3.b.2.pdb.xyz
 -------------------
 Charge =  2 Multiplicity = 1

                         Standard orientation:
 ---------------------------------------------------------------------
 Center     Atomic      Atomic             Coordinates (Angstroms)
 Number     Number       Type             X           Y           Z
 ---------------------------------------------------------------------
      1          8           0        2.219736    0.231096    1.741237
      2         16           0        2.752948   -0.580080    0.667405
      3          7           0        1.677246   -0.589380   -0.608589
      4          6           0        0.375544   -0.114857   -0.440243
      5          7           0        0.047774    1.202963   -0.418597
      6          7           0       -1.238220    1.407017   -0.292968
      7          6           0       -0.821296   -0.783799   -0.325330
      8          7           0       -1.764137    0.193400   -0.248071
      9          6           0       -3.184678    0.039806   -0.109261
     10          6           0       -3.791223   -1.115717   -0.598862
     11          6           0       -5.169622   -1.256799   -0.452502
     12          6           0       -5.919104   -0.252964    0.163756
     13          6           0       -5.290359    0.899320    0.641925
     14          6           0       -3.912373    1.053662    0.513604
     15          7           0        4.115132    0.449676   -0.055489
     16          6           0        4.833560   -0.265276   -1.162096
     17          6           0        3.654262    1.824183   -0.441192
     18          8           0        3.367710   -1.880163    0.835144
     19          1           0        1.770042   -1.427729   -1.192981
     20          1           0       -1.045088   -1.835010   -0.278400
     21          1           0       -3.209258   -1.880847   -1.097450
     22          1           0       -5.655026   -2.149058   -0.830322
     23          1           0       -6.991662   -0.367986    0.271645
     24          1           0       -5.869389    1.677585    1.125260
     25          1           0       -3.406465    1.932552    0.890997
     26          1           0        5.148457   -1.239138   -0.797252
     27          1           0        5.698546    0.342099   -1.421954
     28          1           0        4.164932   -0.354919   -2.015576
     29          1           0        3.079933    2.241986    0.382297
     30          1           0        3.061143    1.751171   -1.350016
     31          1           0        4.548891    2.419929   -0.615501
     32          1           0        4.767319    0.542548    0.745452
     33          1           0        0.678055    2.009554   -0.478527
 ---------------------------------------------------------------------

 SCF Done:  E(RHF) =  -1206.28309659     A.U. after   17 cycles
 E2 =    -0.2805291041D+01 EUMP2 =    -0.12090883876354D+04

 The electronic state is 1-A.
 Alpha  occ. eigenvalues --  -92.57570 -20.89228 -20.88847 -16.01427 -16.00467
 Alpha  occ. eigenvalues --  -16.00200 -15.98961 -15.96025 -11.65808 -11.60258
 Alpha  occ. eigenvalues --  -11.58841 -11.57497 -11.52736 -11.47604 -11.47022
 Alpha  occ. eigenvalues --  -11.45384 -11.45251 -11.45139  -9.53996  -7.22510
 Alpha  occ. eigenvalues --   -7.22472  -7.22448  -1.80378  -1.79642  -1.67532
 Alpha  occ. eigenvalues --   -1.61205  -1.60343  -1.56309  -1.41955  -1.38527
 Alpha  occ. eigenvalues --   -1.29598  -1.28817  -1.25801  -1.24298  -1.21565
 Alpha  occ. eigenvalues --   -1.18616  -1.17479  -1.09518  -1.07133  -1.05976
 Alpha  occ. eigenvalues --   -1.05369  -1.03870  -1.01841  -1.00611  -0.98342
 Alpha  occ. eigenvalues --   -0.96900  -0.96471  -0.94567  -0.93299  -0.89774
 Alpha  occ. eigenvalues --   -0.89581  -0.87978  -0.86754  -0.85210  -0.85172
 Alpha  occ. eigenvalues --   -0.84738  -0.83827  -0.82314  -0.81600  -0.80788
 Alpha  occ. eigenvalues --   -0.80516  -0.79640  -0.78711  -0.78313  -0.72890
 Alpha  occ. eigenvalues --   -0.71639  -0.70878  -0.67406  -0.55463  -0.55274
 Alpha virt. eigenvalues --   -0.20208  -0.18449  -0.16852  -0.16767  -0.15968
 Alpha virt. eigenvalues --   -0.14801  -0.13847  -0.13476  -0.12715  -0.12192
 Alpha virt. eigenvalues --   -0.11803  -0.11502  -0.10725  -0.10362  -0.09776

 Mulliken charges:
               1
     1  O   -0.980327
     2  S    2.935440
     3  N   -0.934389
     4  C    0.597387
     5  N   -0.373528
     6  N   -0.272569
     7  C    1.385934
     8  N   -0.667261
     9  C    0.920546
    10  C    0.118782
    11  C    0.765689
    12  C    0.614202
    13  C    0.575167
    14  C    0.406320
    15  N   -0.676889
    16  C    0.809095
    17  C    0.890646
    18  O   -0.977703
    19  H    0.025687
    20  H   -0.425285
    21  H   -0.648272
    22  H   -0.405628
    23  H   -0.402710
    24  H   -0.399773
    25  H   -0.521634
    26  H   -0.064895
    27  H   -0.065077
    28  H   -0.106282
    29  H   -0.120783
    30  H   -0.066899
    31  H   -0.144998
    32  H    0.179508
    33  H    0.030498
 Sum of Mulliken charges =   2.00000

 Dipole moment (field-independent basis, Debye):
    X=              9.9501    Y=              2.5302    Z=             -5.0910  Tot=             11.4596
 Quadrupole moment (field-independent basis, Debye-Ang):
   XX=             40.8370   YY=            -87.0196   ZZ=           -106.9211
   XY=             18.4901   XZ=            -15.3123   YZ=              6.5179

 Normal termination of Gaussian 16 at Mon Sep 28 09:10:56 2020.
