 Gaussian 16, Revision B.01,

 ----------------------------------------------------------------------
 #p b3lyp/6-31G(d) opt freq NoSymm scf=(MaxCycle=2000,NoVarAcc,NoIncFoc
 k) scrf=(iefpcm,read,solvent=water)
 ----------------------------------------------------------------------

 -------------------
 SM46_m3.b.3.pdb.xyz
 -------------------
 Symbolic Z-matrix:
 Charge =  2 Multiplicity = 1

 SCF Done:  E(RB3LYP) =  -1212.06134209     A.U. after   13 cycles
 SCF Done:  E(RB3LYP) =  -1212.06125530     A.U. after   10 cycles
 SCF Done:  E(RB3LYP) =  -1212.06113390     A.U. after    9 cycles
 SCF Done:  E(RB3LYP) =  -1212.06133360     A.U. after   10 cycles
 SCF Done:  E(RB3LYP) =  -1212.06134305     A.U. after    9 cycles
 SCF Done:  E(RB3LYP) =  -1212.06125200     A.U. after   10 cycles
 SCF Done:  E(RB3LYP) =  -1212.06124875     A.U. after    8 cycles
 SCF Done:  E(RB3LYP) =  -1212.06133798     A.U. after    9 cycles
 SCF Done:  E(RB3LYP) =  -1212.06134279     A.U. after    8 cycles
 SCF Done:  E(RB3LYP) =  -1212.06134304     A.U. after    7 cycles
 SCF Done:  E(RB3LYP) =  -1212.06134279     A.U. after    8 cycles
 SCF Done:  E(RB3LYP) =  -1212.06123632     A.U. after   10 cycles
 SCF Done:  E(RB3LYP) =  -1212.06123518     A.U. after    7 cycles
 SCF Done:  E(RB3LYP) =  -1212.06133843     A.U. after   10 cycles
 SCF Done:  E(RB3LYP) =  -1212.06134277     A.U. after    8 cycles
 SCF Done:  E(RB3LYP) =  -1212.06123497     A.U. after   10 cycles
 Optimization completed.
    -- Stationary point found.
 Normal termination of Gaussian 16 at Thu Sep 24 18:09:18 2020.

 --------------------------------------------------------------------
 #P Geom=AllCheck Guess=TCheck SCRF=Check GenChk RB3LYP/6-31G(d) Freq
 --------------------------------------------------------------------

 Structure from the checkpoint file:  "SM46_m3.b.3.pdb.xyz.mst.b.w.chk"
 -------------------
 SM46_m3.b.3.pdb.xyz
 -------------------
 Charge =  2 Multiplicity = 1

 SCF Done:  E(RB3LYP) =  -1212.06123497     A.U. after    1 cycles

  Exact polarizability: 288.534  17.198 183.722  18.807 -34.374 159.526
 Approx polarizability: 305.505  18.190 223.419  28.042 -49.962 192.642

 ******    1 imaginary frequencies (negative Signs) ******

                      1                      2                      3
                      A                      A                      A
 Frequencies --    -13.1309                19.2310                59.2074
 Red. masses --      4.2761                 5.7173                 5.0166
 Frc consts  --      0.0004                 0.0012                 0.0104
 IR Inten    --      0.6108                 8.4332                 6.6390

                      4                      5                      6
                      A                      A                      A
 Frequencies --     89.8538               105.9697               114.1663
 Red. masses --      5.2158                 4.7675                 2.5582
 Frc consts  --      0.0248                 0.0315                 0.0196
 IR Inten    --      1.4992                 4.4372                 0.8399

                      7                      8                      9
                      A                      A                      A
 Frequencies --    133.1125               183.8274               205.7761
 Red. masses --      5.8590                 5.0359                 2.1090
 Frc consts  --      0.0612                 0.1003                 0.0526
 IR Inten    --      6.9713                 1.6554                 5.8473

                     10                     11                     12
                      A                      A                      A
 Frequencies --    243.8075               250.3127               257.7404
 Red. masses --      1.8551                 2.8821                 2.8006
 Frc consts  --      0.0650                 0.1064                 0.1096
 IR Inten    --     24.2201                 4.2229                11.9901

                     13                     14                     15
                      A                      A                      A
 Frequencies --    273.6072               290.6272               299.2859
 Red. masses --      1.4970                 2.8527                 3.7827
 Frc consts  --      0.0660                 0.1420                 0.1996
 IR Inten    --     22.1317                33.7359                30.4199

                     16                     17                     18
                      A                      A                      A
 Frequencies --    341.8414               378.4504               400.4836
 Red. masses --      1.6403                 5.1638                 5.8385
 Frc consts  --      0.1129                 0.4357                 0.5517
 IR Inten    --    135.3248                27.6136                17.7573

                     19                     20                     21
                      A                      A                      A
 Frequencies --    417.2477               425.0700               444.1549
 Red. masses --      2.9979                 5.7077                 5.3342
 Frc consts  --      0.3075                 0.6076                 0.6200
 IR Inten    --      0.2934                 5.5626                18.5364

                     22                     23                     24
                      A                      A                      A
 Frequencies --    452.3352               486.4657               543.2422
 Red. masses --      3.2729                 4.0183                 4.0556
 Frc consts  --      0.3946                 0.5603                 0.7052
 IR Inten    --      9.4338                 7.2819                20.2393

                     25                     26                     27
                      A                      A                      A
 Frequencies --    548.5456               595.5263               625.6081
 Red. masses --      6.2239                 5.7278                 6.4083
 Frc consts  --      1.1034                 1.1968                 1.4777
 IR Inten    --    102.4904               239.4635                 2.3019

                     28                     29                     30
                      A                      A                      A
 Frequencies --    658.3624               685.5514               696.4123
 Red. masses --      2.7536                 2.0408                 1.9943
 Frc consts  --      0.7032                 0.5651                 0.5699
 IR Inten    --     87.2232                51.2640                59.1050

                     31                     32                     33
                      A                      A                      A
 Frequencies --    706.7963               712.1360               779.2837
 Red. masses --      4.4787                 3.1759                 2.6261
 Frc consts  --      1.3182                 0.9489                 0.9396
 IR Inten    --     33.7338                40.0876                30.1203

                     34                     35                     36
                      A                      A                      A
 Frequencies --    781.5901               842.4826               855.1438
 Red. masses --      2.0116                 1.5133                 1.4629
 Frc consts  --      0.7240                 0.6329                 0.6303
 IR Inten    --     54.4865                15.8401                19.4727

                     37                     38                     39
                      A                      A                      A
 Frequencies --    868.4428               896.9072               942.1883
 Red. masses --      3.4998                 5.2983                 1.3702
 Frc consts  --      1.5552                 2.5112                 0.7167
 IR Inten    --     23.6115               168.5598                 6.2787

                     40                     41                     42
                      A                      A                      A
 Frequencies --    986.0315              1006.6208              1006.7266
 Red. masses --      1.3545                 5.9377                 2.7089
 Frc consts  --      0.7759                 3.5449                 1.6176
 IR Inten    --      0.7625                10.2953                29.8499

                     43                     44                     45
                      A                      A                      A
 Frequencies --   1020.4637              1022.4242              1051.1400
 Red. masses --      1.2960                 6.2298                 2.1510
 Frc consts  --      0.7952                 3.8369                 1.4003
 IR Inten    --      0.3173                 1.1166                 5.1017

                     46                     47                     48
                      A                      A                      A
 Frequencies --   1076.3579              1084.9092              1108.6792
 Red. masses --      2.4065                 1.1426                 2.1256
 Frc consts  --      1.6427                 0.7924                 1.5394
 IR Inten    --     93.9194                16.6728                16.8167

                     49                     50                     51
                      A                      A                      A
 Frequencies --   1112.6400              1151.6109              1155.4337
 Red. masses --      1.8825                12.0473                 1.7796
 Frc consts  --      1.3731                 9.4135                 1.3998
 IR Inten    --      2.0112               312.5777                13.1043

                     52                     53                     54
                      A                      A                      A
 Frequencies --   1189.1002              1193.4891              1197.2715
 Red. masses --      1.3295                 1.1080                 1.1699
 Frc consts  --      1.1076                 0.9299                 0.9881
 IR Inten    --     15.9381                 1.1982                 5.8094

                     55                     56                     57
                      A                      A                      A
 Frequencies --   1227.1751              1246.1699              1264.7270
 Red. masses --      1.7102                 3.7595                 1.6219
 Frc consts  --      1.5174                 3.4398                 1.5285
 IR Inten    --     22.7893                19.8952                 7.2735

                     58                     59                     60
                      A                      A                      A
 Frequencies --   1340.3522              1349.9465              1368.3305
 Red. masses --      2.2618                 2.7412                 4.2785
 Frc consts  --      2.3941                 2.9432                 4.7198
 IR Inten    --     21.1716                44.5038                15.8079

                     61                     62                     63
                      A                      A                      A
 Frequencies --   1372.9766              1409.1378              1416.2295
 Red. masses --      2.4105                 2.8584                 2.0788
 Frc consts  --      2.6772                 3.3441                 2.4566
 IR Inten    --     57.5271               183.5316                78.4672

                     64                     65                     66
                      A                      A                      A
 Frequencies --   1425.8431              1451.1761              1462.5417
 Red. masses --      1.7586                 1.1830                 1.1849
 Frc consts  --      2.1064                 1.4679                 1.4933
 IR Inten    --     69.0236                21.4350                63.3587

                     67                     68                     69
                      A                      A                      A
 Frequencies --   1470.7085              1474.4720              1500.7066
 Red. masses --      3.0976                 1.1482                 2.2258
 Frc consts  --      3.9475                 1.4707                 2.9535
 IR Inten    --     11.6691                 8.8774                 8.4510

                     70                     71                     72
                      A                      A                      A
 Frequencies --   1504.8513              1515.4915              1519.9948
 Red. masses --      1.0466                 2.5569                 1.0483
 Frc consts  --      1.3965                 3.4600                 1.4270
 IR Inten    --      0.5628                20.4146                41.0759

                     73                     74                     75
                      A                      A                      A
 Frequencies --   1530.9127              1539.4567              1552.4222
 Red. masses --      1.0438                 2.4338                 1.0524
 Frc consts  --      1.4414                 3.3984                 1.4944
 IR Inten    --     31.1124                25.6355                44.2246

                     76                     77                     78
                      A                      A                      A
 Frequencies --   1648.5393              1654.3402              1665.5767
 Red. masses --      5.3184                 5.6213                 5.3937
 Frc consts  --      8.5159                 9.0644                 8.8159
 IR Inten    --    117.8669                38.1584               151.9677

                     79                     80                     81
                      A                      A                      A
 Frequencies --   3126.8970              3141.2440              3222.6303
 Red. masses --      1.0295                 1.0309                 1.0869
 Frc consts  --      5.9306                 5.9932                 6.6505
 IR Inten    --      3.2695                 2.8952                 0.2990

                     82                     83                     84
                      A                      A                      A
 Frequencies --   3223.0508              3231.8013              3232.0916
 Red. masses --      1.1085                 1.0898                 1.1062
 Frc consts  --      6.7846                 6.7064                 6.8086
 IR Inten    --      2.1603                11.1457                 1.6672

                     85                     86                     87
                      A                      A                      A
 Frequencies --   3235.8145              3238.4942              3245.0965
 Red. masses --      1.1108                 1.0932                 1.0968
 Frc consts  --      6.8527                 6.7550                 6.8049
 IR Inten    --      2.6028                24.7065                10.9282

                     88                     89                     90
                      A                      A                      A
 Frequencies --   3255.2024              3261.6488              3338.2110
 Red. masses --      1.0949                 1.1082                 1.0779
 Frc consts  --      6.8355                 6.9460                 7.0768
 IR Inten    --      2.0823                 6.3268               343.9702

                     91                     92                     93
                      A                      A                      A
 Frequencies --   3355.8917              3470.3620              3521.3526
 Red. masses --      1.1025                 1.0785                 1.0876
 Frc consts  --      7.3152                 7.6528                 7.9461
 IR Inten    --     32.8580               384.0962               620.9764

 - Thermochemistry -
 -------------------
 Temperature   298.150 Kelvin.  Pressure   1.00000 Atm.
 Atom     1 has atomic number  8 and mass  15.99491

 Molecular mass:   269.09465 amu.
 Principal axes and moments of inertia in atomic units:
                           1         2         3
     Eigenvalues --  1821.07259********************
           X            0.99978   0.01096   0.01778
           Y           -0.00916   0.99513  -0.09814
           Z           -0.01877   0.09795   0.99501
 This molecule is an asymmetric top.
 Rotational symmetry number  1.
 Warning -- assumption of classical behavior for rotation
           may cause significant error
 Rotational temperatures (Kelvin)      0.04756     0.00793     0.00761
 Rotational constants (GHZ):           0.99103     0.16516     0.15865
    1 imaginary frequencies ignored.
 Zero-point vibrational energy     705710.4 (Joules/Mol)
                                  168.66882 (Kcal/Mol)
 Warning -- explicit consideration of  25 degrees of freedom as
           vibrations may cause significant error
 Vibrational temperatures:     27.67    85.19   129.28   152.47   164.26
          (Kelvin)            191.52   264.49   296.07   350.78   360.14
                              370.83   393.66   418.15   430.61   491.83
                              544.51   576.21   600.33   611.58   639.04
                              650.81   699.92   781.60   789.23   856.83
                              900.11   947.24   986.36  1001.98  1016.92
                             1024.60  1121.22  1124.53  1212.14  1230.36
                             1249.50  1290.45  1355.60  1418.68  1448.30
                             1448.46  1468.22  1471.04  1512.36  1548.64
                             1560.94  1595.14  1600.84  1656.91  1662.41
                             1710.85  1717.16  1722.61  1765.63  1792.96
                             1819.66  1928.47  1942.27  1968.72  1975.41
                             2027.44  2037.64  2051.47  2087.92  2104.27
                             2116.02  2121.44  2159.18  2165.15  2180.45
                             2186.93  2202.64  2214.93  2233.59  2371.88
                             2380.23  2396.39  4498.91  4519.55  4636.65
                             4637.25  4649.84  4650.26  4655.62  4659.47
                             4668.97  4683.51  4692.79  4802.94  4828.38
                             4993.08  5066.44

 Zero-point correction=                           0.268791 (Hartree/Particle)
 Thermal correction to Energy=                    0.284753
 Thermal correction to Enthalpy=                  0.285697
 Thermal correction to Gibbs Free Energy=         0.224784
 Sum of electronic and zero-point Energies=          -1211.792444
 Sum of electronic and thermal Energies=             -1211.776482
 Sum of electronic and thermal Enthalpies=           -1211.775538
 Sum of electronic and thermal Free Energies=        -1211.836451

                     E (Thermal)             CV                S
                      KCal/Mol        Cal/Mol-Kelvin    Cal/Mol-Kelvin
 Total                  178.685             62.409            128.202
 Electronic               0.000              0.000              0.000
 Translational            0.889              2.981             42.669
 Rotational               0.889              2.981             33.781
 Vibrational            176.907             56.447             51.753
 Vibration     1          0.593              1.986              6.712
 Vibration     2          0.597              1.974              4.483
 Vibration     3          0.602              1.956              3.663
 Vibration     4          0.605              1.944              3.341
 Vibration     5          0.607              1.938              3.197
 Vibration     6          0.613              1.920              2.901
 Vibration     7          0.631              1.862              2.289
 Vibration     8          0.640              1.832              2.081
 Vibration     9          0.659              1.773              1.775
 Vibration    10          0.663              1.762              1.728
 Vibration    11          0.667              1.750              1.677
 Vibration    12          0.676              1.722              1.573
 Vibration    13          0.687              1.691              1.470
 Vibration    14          0.692              1.675              1.421
 Vibration    15          0.721              1.592              1.204
 Vibration    16          0.749              1.516              1.045
 Vibration    17          0.766              1.469              0.961
 Vibration    18          0.780              1.433              0.901
 Vibration    19          0.787              1.416              0.875
 Vibration    20          0.804              1.374              0.814
 Vibration    21          0.811              1.356              0.789
 Vibration    22          0.842              1.280              0.693
 Vibration    23          0.898              1.154              0.558
 Vibration    24          0.904              1.143              0.547
 Vibration    25          0.953              1.041              0.457

                           ! Non-Optimized Parameters !
 Normal termination of Gaussian 16 at Thu Sep 24 18:18:58 2020.

 ----------------------------------------------------------------------
 #p b3lyp/6-31G(d) scrf=(iefpcm,read,solvent=water) geom=allcheck guess
 =read
 ----------------------------------------------------------------------

 Structure from the checkpoint file:  "SM46_m3.b.3.pdb.xyz.mst.b.w.chk"
 -------------------
 SM46_m3.b.3.pdb.xyz
 -------------------
 Charge =  2 Multiplicity = 1

 SCF Done:  E(RB3LYP) =  -1212.06117588     A.U. after    7 cycles
 Normal termination of Gaussian 16 at Thu Sep 24 18:19:36 2020.

 -----------------------------
 #p B3LYP/6-31G* geom=allcheck
 -----------------------------

 Structure from the checkpoint file:  "SM46_m3.b.3.pdb.xyz.mst.b.w.chk"
 -------------------
 SM46_m3.b.3.pdb.xyz
 -------------------
 Charge =  2 Multiplicity = 1

 SCF Done:  E(RB3LYP) =  -1211.75962466     A.U. after   16 cycles
 Normal termination of Gaussian 16 at Thu Sep 24 18:20:21 2020.
 Gaussian 16:  ES64L-G16RevB.01 20-Dec-2017

 ----------------------------------------------------------------------
 #p mp2/aug-cc-pVDZ scf=(MaxCycle=2000,NoVarAcc,NoIncFock) maxdisk=120G
 B geom=allcheck
 ----------------------------------------------------------------------

 Structure from the checkpoint file:  "SM46_m3.b.3.pdb.xyz.mst.b.w.chk"
 -------------------
 SM46_m3.b.3.pdb.xyz
 -------------------
 Charge =  2 Multiplicity = 1

                         Standard orientation:
 ---------------------------------------------------------------------
 Center     Atomic      Atomic             Coordinates (Angstroms)
 Number     Number       Type             X           Y           Z
 ---------------------------------------------------------------------
      1          8           0       -4.252479   -0.660617   -1.015564
      2         16           0       -3.111755   -0.524921   -0.135884
      3          7           0       -1.769841   -0.328510   -1.072870
      4          6           0       -0.459923   -0.525999   -0.647480
      5          7           0        0.010441   -1.704731   -0.160817
      6          7           0        1.291810   -1.668267    0.108288
      7          6           0        0.632494    0.309536   -0.686417
      8          7           0        1.666497   -0.444662   -0.227854
      9          6           0        3.039833   -0.053713   -0.076971
     10          6           0        3.596661    0.820089   -1.009541
     11          6           0        4.930737    1.192053   -0.856676
     12          6           0        5.685280    0.686974    0.203968
     13          6           0        5.107094   -0.192080    1.122838
     14          6           0        3.772259   -0.567917    0.992325
     15          7           0       -3.440271    1.129720    0.698417
     16          6           0       -2.520888    1.404450    1.849745
     17          6           0       -3.535211    2.253867   -0.289129
     18          8           0       -2.794025   -1.406856    0.967469
     19          1           0       -1.921841    0.160143   -1.960794
     20          1           0        0.728429    1.339805   -0.980836
     21          1           0        3.012750    1.184456   -1.846017
     22          1           0        5.379718    1.867612   -1.575344
     23          1           0        6.723870    0.977677    0.314302
     24          1           0        5.690714   -0.580450    1.949271
     25          1           0        3.302981   -1.235302    1.703557
     26          1           0       -2.478491    0.515937    2.474086
     27          1           0       -2.952928    2.234853    2.405975
     28          1           0       -1.536402    1.675909    1.477595
     29          1           0       -4.229022    1.966594   -1.075669
     30          1           0       -2.546251    2.469418   -0.688079
     31          1           0       -3.920704    3.117828    0.250087
     32          1           0       -4.388581    0.972794    1.086004
     33          1           0       -0.504598   -2.577175   -0.007345
 ---------------------------------------------------------------------

 SCF Done:  E(RHF) =  -1206.28413320     A.U. after   17 cycles
 E2 =    -0.2804354200D+01 EUMP2 =    -0.12090884873953D+04

 The electronic state is 1-A.
 Alpha  occ. eigenvalues --  -92.57782 -20.89344 -20.88553 -16.01142 -16.00745
 Alpha  occ. eigenvalues --  -16.00159 -15.99445 -15.96380 -11.66391 -11.60918
 Alpha  occ. eigenvalues --  -11.58057 -11.57733 -11.53243 -11.48136 -11.47610
 Alpha  occ. eigenvalues --  -11.45946 -11.45795 -11.45682  -9.54139  -7.22660
 Alpha  occ. eigenvalues --   -7.22631  -7.22597  -1.80573  -1.79731  -1.67578
 Alpha  occ. eigenvalues --   -1.60874  -1.60428  -1.56526  -1.42447  -1.39018
 Alpha  occ. eigenvalues --   -1.29278  -1.29186  -1.25645  -1.24614  -1.21750
 Alpha  occ. eigenvalues --   -1.18991  -1.17702  -1.10743  -1.07380  -1.06533
 Alpha  occ. eigenvalues --   -1.05389  -1.03640  -1.02163  -1.00788  -0.98449
 Alpha  occ. eigenvalues --   -0.97258  -0.96271  -0.94942  -0.93383  -0.90141
 Alpha  occ. eigenvalues --   -0.89697  -0.87655  -0.86639  -0.85858  -0.85105
 Alpha  occ. eigenvalues --   -0.84916  -0.83498  -0.82838  -0.81691  -0.81375
 Alpha  occ. eigenvalues --   -0.80628  -0.79230  -0.78727  -0.78164  -0.73406
 Alpha  occ. eigenvalues --   -0.72317  -0.71446  -0.67776  -0.56118  -0.55884
 Alpha virt. eigenvalues --   -0.20283  -0.18788  -0.18070  -0.16407  -0.16139
 Alpha virt. eigenvalues --   -0.15409  -0.13751  -0.13333  -0.12706  -0.12170
 Alpha virt. eigenvalues --   -0.11671  -0.11460  -0.11230  -0.10574  -0.09766

 Mulliken charges:
               1
     1  O   -0.947044
     2  S    2.764967
     3  N   -0.667279
     4  C    0.525644
     5  N   -0.295790
     6  N   -0.207854
     7  C    1.164701
     8  N   -0.520371
     9  C    0.969172
    10  C    0.145270
    11  C    0.716286
    12  C    0.591938
    13  C    0.581614
    14  C    0.451204
    15  N   -0.635420
    16  C    0.969620
    17  C    0.787679
    18  O   -1.010803
    19  H   -0.018781
    20  H   -0.523651
    21  H   -0.649759
    22  H   -0.402654
    23  H   -0.404896
    24  H   -0.396529
    25  H   -0.535753
    26  H   -0.105941
    27  H   -0.113333
    28  H   -0.126169
    29  H   -0.108510
    30  H   -0.130079
    31  H   -0.081542
    32  H    0.203130
    33  H    0.010933
 Sum of Mulliken charges =   2.00000

 Dipole moment (field-independent basis, Debye):
    X=             -5.4938    Y=              6.2528    Z=              0.4325  Tot=              8.3347
 Quadrupole moment (field-independent basis, Debye-Ang):
   XX=             -5.4082   YY=            -83.1465   ZZ=            -91.6161
   XY=            -19.7999   XZ=             -6.9555   YZ=             -1.0903

 Normal termination of Gaussian 16 at Thu Sep 24 18:52:02 2020.
