 Gaussian 16, Revision B.01,

 ----------------------------------------------------------------------
 #p b3lyp/6-31G(d) opt freq NoSymm scf=(MaxCycle=2000,NoVarAcc,NoIncFoc
 k) scrf=(iefpcm,read,solvent=water)
 ----------------------------------------------------------------------

 -------------------
 SM46_m2.b.1.pdb.xyz
 -------------------
 Symbolic Z-matrix:
 Charge =  1 Multiplicity = 1

 SCF Done:  E(RB3LYP) =  -1211.63441169     A.U. after   13 cycles
 SCF Done:  E(RB3LYP) =  -1211.63441630     A.U. after    8 cycles
 SCF Done:  E(RB3LYP) =  -1211.63441522     A.U. after    7 cycles
 SCF Done:  E(RB3LYP) =  -1211.63441626     A.U. after    6 cycles
 Optimization completed.
    -- Stationary point found.
 Normal termination of Gaussian 16 at Mon Sep 28 08:26:38 2020.

 --------------------------------------------------------------------
 #P Geom=AllCheck Guess=TCheck SCRF=Check GenChk RB3LYP/6-31G(d) Freq
 --------------------------------------------------------------------

 Structure from the checkpoint file:  "SM46_m2.b.1.pdb.xyz.mst.b.w.chk"
 -------------------
 SM46_m2.b.1.pdb.xyz
 -------------------
 Charge =  1 Multiplicity = 1

 SCF Done:  E(RB3LYP) =  -1211.63441626     A.U. after    1 cycles

  Exact polarizability: 281.113  18.827 223.609   5.319 -21.715 125.363
 Approx polarizability: 303.824  18.507 264.068   3.547 -27.205 150.531

                      1                      2                      3
                      A                      A                      A
 Frequencies --     23.1129                35.1633                43.4402
 Red. masses --      3.7749                 5.2466                 5.2017
 Frc consts  --      0.0012                 0.0038                 0.0058
 IR Inten    --      0.1590                 4.9521                 2.3652

                      4                      5                      6
                      A                      A                      A
 Frequencies --     64.4243                86.0137                91.1400
 Red. masses --      3.6867                 3.8717                 4.8417
 Frc consts  --      0.0090                 0.0169                 0.0237
 IR Inten    --      1.1089                 2.1215                 1.4142

                      7                      8                      9
                      A                      A                      A
 Frequencies --    122.3205               176.0102               204.1473
 Red. masses --      5.6332                 1.6592                 1.5087
 Frc consts  --      0.0497                 0.0303                 0.0370
 IR Inten    --      3.2316                 8.6359                 7.9408

                     10                     11                     12
                      A                      A                      A
 Frequencies --    212.6088               228.4859               257.3042
 Red. masses --      1.8689                 2.1953                 5.3271
 Frc consts  --      0.0498                 0.0675                 0.2078
 IR Inten    --      2.2160                 5.2141                 1.0498

                     13                     14                     15
                      A                      A                      A
 Frequencies --    270.8957               310.8581               341.5963
 Red. masses --      5.1796                 4.5475                 5.7953
 Frc consts  --      0.2239                 0.2589                 0.3984
 IR Inten    --      1.9378                 5.0205                 7.4717

                     16                     17                     18
                      A                      A                      A
 Frequencies --    355.9487               381.8636               416.8601
 Red. masses --      2.8590                 7.5661                 2.9984
 Frc consts  --      0.2134                 0.6500                 0.3070
 IR Inten    --      6.4558                11.1764                 0.5421

                     19                     20                     21
                      A                      A                      A
 Frequencies --    417.9418               449.1098               469.9416
 Red. masses --      3.9829                 5.1076                 3.8191
 Frc consts  --      0.4099                 0.6070                 0.4969
 IR Inten    --      9.5496                 8.9302                37.1411

                     22                     23                     24
                      A                      A                      A
 Frequencies --    487.2521               507.3507               537.7424
 Red. masses --      2.4775                 3.7229                 3.8732
 Frc consts  --      0.3466                 0.5646                 0.6599
 IR Inten    --     70.8571               128.2457                22.3477

                     25                     26                     27
                      A                      A                      A
 Frequencies --    565.6601               626.1107               656.8195
 Red. masses --      7.8878                 6.3777                 4.7216
 Frc consts  --      1.4870                 1.4730                 1.2001
 IR Inten    --    157.9446                 0.0468                38.0581

                     28                     29                     30
                      A                      A                      A
 Frequencies --    679.9627               681.6655               697.8635
 Red. masses --      1.5695                 5.1730                 6.0572
 Frc consts  --      0.4275                 1.4162                 1.7380
 IR Inten    --     82.4305                78.9597                48.1876

                     31                     32                     33
                      A                      A                      A
 Frequencies --    699.7871               710.7988               780.8092
 Red. masses --      2.0450                 2.3947                 1.6073
 Frc consts  --      0.5900                 0.7128                 0.5773
 IR Inten    --     63.3033                44.6228                74.8430

                     34                     35                     36
                      A                      A                      A
 Frequencies --    798.6012               808.9540               850.5522
 Red. masses --      2.0584                 2.5768                 2.3144
 Frc consts  --      0.7735                 0.9935                 0.9865
 IR Inten    --    115.1774                12.2860               216.9753

                     37                     38                     39
                      A                      A                      A
 Frequencies --    853.4267               940.7852               944.8761
 Red. masses --      1.7292                 3.1756                 1.3683
 Frc consts  --      0.7420                 1.6560                 0.7198
 IR Inten    --    114.1179               189.5116                 4.8292

                     40                     41                     42
                      A                      A                      A
 Frequencies --    986.5400              1008.7383              1019.0056
 Red. masses --      1.3500                 8.0315                 1.2911
 Frc consts  --      0.7741                 4.8151                 0.7899
 IR Inten    --      0.5795                17.2457                 0.2272

                     43                     44                     45
                      A                      A                      A
 Frequencies --   1022.8675              1051.1830              1064.9735
 Red. masses --      6.2945                 2.1458                 1.6311
 Frc consts  --      3.8802                 1.3970                 1.0900
 IR Inten    --      0.5207                 4.3505                30.3347

                     46                     47                     48
                      A                      A                      A
 Frequencies --   1067.0597              1106.7513              1111.7685
 Red. masses --      2.0771                 2.7482                 2.2023
 Frc consts  --      1.3934                 1.9833                 1.6038
 IR Inten    --     97.0747                35.6699               155.3541

                     49                     50                     51
                      A                      A                      A
 Frequencies --   1113.8748              1128.7119              1172.2645
 Red. masses --      4.1310                 1.2671                 1.3633
 Frc consts  --      3.0198                 0.9511                 1.1038
 IR Inten    --    171.3587                12.4894                 4.8874

                     52                     53                     54
                      A                      A                      A
 Frequencies --   1194.8098              1199.5316              1213.5312
 Red. masses --      1.1197                 1.1538                 2.1698
 Frc consts  --      0.9417                 0.9782                 1.8827
 IR Inten    --      1.3231                 2.1946                61.5559

                     55                     56                     57
                      A                      A                      A
 Frequencies --   1215.7615              1235.8266              1279.2505
 Red. masses --      3.3595                 2.7612                 2.0103
 Frc consts  --      2.9257                 2.4846                 1.9383
 IR Inten    --     47.8897                 2.3827                49.5641

                     58                     59                     60
                      A                      A                      A
 Frequencies --   1302.8552              1333.0443              1344.2784
 Red. masses --      7.2817                 4.2449                 1.7210
 Frc consts  --      7.2825                 4.4444                 1.8324
 IR Inten    --    282.1391               105.3533                 5.8371

                     61                     62                     63
                      A                      A                      A
 Frequencies --   1367.5525              1397.1849              1436.1035
 Red. masses --      4.3259                 2.5816                 2.4453
 Frc consts  --      4.7667                 2.9693                 2.9714
 IR Inten    --      4.1804                 4.1839                79.4421

                     64                     65                     66
                      A                      A                      A
 Frequencies --   1451.6428              1462.6747              1471.6053
 Red. masses --      1.1515                 2.8862                 1.1513
 Frc consts  --      1.4296                 3.6381                 1.4689
 IR Inten    --      0.5321                14.0736                 4.4732

                     67                     68                     69
                      A                      A                      A
 Frequencies --   1501.1099              1507.7203              1512.1825
 Red. masses --      1.0439                 2.1412                 1.0495
 Frc consts  --      1.3860                 2.8678                 1.4140
 IR Inten    --      7.3834                12.2067                17.6998

                     70                     71                     72
                      A                      A                      A
 Frequencies --   1513.6837              1528.7653              1531.7785
 Red. masses --      1.0734                 1.0584                 2.4760
 Frc consts  --      1.4490                 1.4575                 3.4230
 IR Inten    --     19.5417                17.5052               146.6356

                     73                     74                     75
                      A                      A                      A
 Frequencies --   1541.6718              1650.1140              1654.9851
 Red. masses --      2.4727                 5.6987                 5.6923
 Frc consts  --      3.4626                 9.1422                 9.1859
 IR Inten    --     21.5206               195.3757                84.3817

                     76                     77                     78
                      A                      A                      A
 Frequencies --   1665.5805              3069.0064              3070.5405
 Red. masses --      5.7244                 1.0417                 1.0404
 Frc consts  --      9.3565                 5.7806                 5.7796
 IR Inten    --    254.4214                41.8534                74.5772

                     79                     80                     81
                      A                      A                      A
 Frequencies --   3153.0381              3155.9310              3188.2327
 Red. masses --      1.0971                 1.0977                 1.1052
 Frc consts  --      6.4263                 6.4415                 6.6189
 IR Inten    --     38.7394                 4.1668                10.3244

                     82                     83                     84
                      A                      A                      A
 Frequencies --   3211.3629              3220.5599              3230.5206
 Red. masses --      1.1025                 1.0869                 1.0899
 Frc consts  --      6.6992                 6.6421                 6.7019
 IR Inten    --      5.0965                 0.3883                12.3912

                     85                     86                     87
                      A                      A                      A
 Frequencies --   3237.5754              3246.2811              3254.5210
 Red. masses --      1.0936                 1.0959                 1.0947
 Frc consts  --      6.7540                 6.8047                 6.8314
 IR Inten    --     28.7466                 7.5428                 1.8371

                     88                     89                     90
                      A                      A                      A
 Frequencies --   3361.8940              3509.9926              3522.8183
 Red. masses --      1.1014                 1.0868                 1.0775
 Frc consts  --      7.3343                 7.8888                 7.8787
 IR Inten    --     31.2671               481.7100               374.4042

 - Thermochemistry -
 -------------------
 Temperature   298.150 Kelvin.  Pressure   1.00000 Atm.
 Atom     1 has atomic number  8 and mass  15.99491

 Molecular mass:   268.08682 amu.
 Principal axes and moments of inertia in atomic units:
                           1         2         3
     Eigenvalues --  2096.563569487.39942**********
           X            0.99987  -0.00872  -0.01390
           Y            0.00950   0.99835   0.05672
           Z            0.01338  -0.05684   0.99829
 This molecule is an asymmetric top.
 Rotational symmetry number  1.
 Warning -- assumption of classical behavior for rotation
           may cause significant error
 Rotational temperatures (Kelvin)      0.04131     0.00913     0.00816
 Rotational constants (GHZ):           0.86081     0.19023     0.16998
 Zero-point vibrational energy     667441.2 (Joules/Mol)
                                  159.52229 (Kcal/Mol)
 Warning -- explicit consideration of  25 degrees of freedom as
           vibrations may cause significant error
 Vibrational temperatures:     33.25    50.59    62.50    92.69   123.75
          (Kelvin)            131.13   175.99   253.24   293.72   305.90
                              328.74   370.20   389.76   447.26   491.48
                              512.13   549.42   599.77   601.33   646.17
                              676.14   701.05   729.96   773.69   813.86
                              900.83   945.02   978.31   980.76  1004.07
                             1006.84  1022.68  1123.41  1149.01  1163.90
                             1223.75  1227.89  1353.58  1359.47  1419.41
                             1451.35  1466.12  1471.68  1512.42  1532.26
                             1535.26  1592.37  1599.59  1602.62  1623.96
                             1686.63  1719.06  1725.86  1746.00  1749.21
                             1778.08  1840.56  1874.52  1917.95  1934.12
                             1967.60  2010.24  2066.23  2088.59  2104.46
                             2117.31  2159.76  2169.27  2175.69  2177.85
                             2199.55  2203.89  2218.12  2374.15  2381.15
                             2396.40  4415.62  4417.82  4536.52  4540.68
                             4587.16  4620.43  4633.67  4648.00  4658.15
                             4670.67  4682.53  4837.02  5050.10  5068.55

 Zero-point correction=                           0.254215 (Hartree/Particle)
 Thermal correction to Energy=                    0.271057
 Thermal correction to Enthalpy=                  0.272001
 Thermal correction to Gibbs Free Energy=         0.207802
 Sum of electronic and zero-point Energies=          -1211.380201
 Sum of electronic and thermal Energies=             -1211.363360
 Sum of electronic and thermal Enthalpies=           -1211.362415
 Sum of electronic and thermal Free Energies=        -1211.426614

                     E (Thermal)             CV                S
                      KCal/Mol        Cal/Mol-Kelvin    Cal/Mol-Kelvin
 Total                  170.091             63.722            135.118
 Electronic               0.000              0.000              0.000
 Translational            0.889              2.981             42.657
 Rotational               0.889              2.981             33.712
 Vibrational            168.313             57.760             58.748
 Vibration     1          0.593              1.985              6.347
 Vibration     2          0.594              1.982              5.514
 Vibration     3          0.595              1.980              5.096
 Vibration     4          0.597              1.971              4.317
 Vibration     5          0.601              1.959              3.749
 Vibration     6          0.602              1.955              3.635
 Vibration     7          0.610              1.930              3.063
 Vibration     8          0.628              1.872              2.370
 Vibration     9          0.640              1.834              2.095
 Vibration    10          0.644              1.822              2.021
 Vibration    11          0.651              1.798              1.891
 Vibration    12          0.667              1.750              1.680
 Vibration    13          0.675              1.727              1.590
 Vibration    14          0.700              1.653              1.358
 Vibration    15          0.721              1.592              1.205
 Vibration    16          0.731              1.563              1.140
 Vibration    17          0.751              1.509              1.032
 Vibration    18          0.780              1.434              0.903
 Vibration    19          0.781              1.431              0.899
 Vibration    20          0.808              1.363              0.798
 Vibration    21          0.827              1.317              0.738
 Vibration    22          0.843              1.278              0.691
 Vibration    23          0.863              1.234              0.640
 Vibration    24          0.893              1.167              0.570
 Vibration    25          0.922              1.106              0.513

                           ! Non-Optimized Parameters !
 Normal termination of Gaussian 16 at Mon Sep 28 08:35:56 2020.

 ----------------------------------------------------------------------
 #p b3lyp/6-31G(d) scrf=(iefpcm,read,solvent=water) geom=allcheck guess
 =read
 ----------------------------------------------------------------------

 Structure from the checkpoint file:  "SM46_m2.b.1.pdb.xyz.mst.b.w.chk"
 -------------------
 SM46_m2.b.1.pdb.xyz
 -------------------
 Charge =  1 Multiplicity = 1

 SCF Done:  E(RB3LYP) =  -1211.63440325     A.U. after    7 cycles
 Normal termination of Gaussian 16 at Mon Sep 28 08:36:32 2020.

 -----------------------------
 #p B3LYP/6-31G* geom=allcheck
 -----------------------------

 Structure from the checkpoint file:  "SM46_m2.b.1.pdb.xyz.mst.b.w.chk"
 -------------------
 SM46_m2.b.1.pdb.xyz
 -------------------
 Charge =  1 Multiplicity = 1

 SCF Done:  E(RB3LYP) =  -1211.53230690     A.U. after   15 cycles

 The electronic state is 1-A.
 Alpha  occ. eigenvalues --  -89.26728 -19.28039 -19.27739 -14.64043 -14.62975
 Alpha  occ. eigenvalues --  -14.60023 -14.55021 -14.50834 -10.47299 -10.41874
 Alpha  occ. eigenvalues --  -10.38993 -10.34297 -10.34180 -10.33952 -10.33850
 Alpha  occ. eigenvalues --  -10.32865 -10.32714 -10.32623  -8.28994  -6.25563
 Alpha  occ. eigenvalues --   -6.25372  -6.25325  -1.32859  -1.25851  -1.15673
 Alpha  occ. eigenvalues --   -1.13600  -1.11038  -1.07047  -1.00636  -1.00416
 Alpha  occ. eigenvalues --   -0.92993  -0.89295  -0.86565  -0.85095  -0.84701
 Alpha  occ. eigenvalues --   -0.83044  -0.78426  -0.75418  -0.74990  -0.73554
 Alpha  occ. eigenvalues --   -0.69532  -0.68825  -0.68604  -0.66760  -0.64396
 Alpha  occ. eigenvalues --   -0.63475  -0.62911  -0.60575  -0.59584  -0.58478
 Alpha  occ. eigenvalues --   -0.57545  -0.56774  -0.56473  -0.55533  -0.53855
 Alpha  occ. eigenvalues --   -0.53345  -0.52762  -0.51737  -0.50683  -0.49845
 Alpha  occ. eigenvalues --   -0.49631  -0.48565  -0.47875  -0.47152  -0.44744
 Alpha  occ. eigenvalues --   -0.43225  -0.41909  -0.39232  -0.39083  -0.38671
 Alpha virt. eigenvalues --   -0.22029  -0.15948  -0.14082  -0.12842  -0.10681
 Alpha virt. eigenvalues --   -0.08256  -0.06172  -0.06044  -0.04150  -0.03014
 Alpha virt. eigenvalues --   -0.02278  -0.01748   0.00262   0.00874   0.01773

 Mulliken charges:
               1
     1  O   -0.495232
     2  S    1.332408
     3  N   -0.811445
     4  C    0.585252
     5  N   -0.446701
     6  N    0.026276
     7  C    0.061668
     8  N   -0.331099
     9  C    0.301734
    10  C   -0.153916
    11  C   -0.136781
    12  C   -0.102095
    13  C   -0.136681
    14  C   -0.131623
    15  N   -0.553181
    16  C   -0.337058
    17  C   -0.331569
    18  O   -0.484389
    19  H    0.390625
    20  H    0.252576
    21  H    0.169388
    22  H    0.182264
    23  H    0.184538
    24  H    0.184863
    25  H    0.187990
    26  H    0.216074
    27  H    0.184473
    28  H    0.198149
    29  H    0.190965
    30  H    0.205305
    31  H    0.187860
    32  H    0.409363
 Sum of Mulliken charges =   1.00000

 Dipole moment (field-independent basis, Debye):
    X=              4.6997    Y=             -1.1772    Z=              3.2600  Tot=              5.8395
 Quadrupole moment (field-independent basis, Debye-Ang):
   XX=            -71.7924   YY=            -74.2576   ZZ=           -111.3590
   XY=              0.0968   XZ=             -7.2940   YZ=             -1.7533

 Normal termination of Gaussian 16 at Mon Sep 28 08:37:15 2020.
 Gaussian 16:  ES64L-G16RevB.01 20-Dec-2017

 ----------------------------------------------------------------------
 #p mp2/aug-cc-pVDZ scf=(MaxCycle=2000,NoVarAcc,NoIncFock) maxdisk=120G
 B geom=allcheck
 ----------------------------------------------------------------------

 Structure from the checkpoint file:  "SM46_m2.b.1.pdb.xyz.mst.b.w.chk"
 -------------------
 SM46_m2.b.1.pdb.xyz
 -------------------
 Charge =  1 Multiplicity = 1

                         Standard orientation:
 ---------------------------------------------------------------------
 Center     Atomic      Atomic             Coordinates (Angstroms)
 Number     Number       Type             X           Y           Z
 ---------------------------------------------------------------------
      1          8           0       -2.521805    0.089801   -1.784063
      2         16           0       -2.961973   -0.160229   -0.412152
      3          7           0       -1.935476   -1.278524    0.374521
      4          6           0       -0.569204   -1.229874    0.188540
      5          7           0        0.193003   -2.327718   -0.054264
      6          7           0        1.481990   -2.059642   -0.140816
      7          6           0        0.331227   -0.183697    0.245988
      8          7           0        1.548993   -0.753498    0.031623
      9          6           0        2.822662   -0.094035   -0.000021
     10          6           0        2.890886    1.216558   -0.469714
     11          6           0        4.129991    1.853963   -0.490372
     12          6           0        5.274450    1.182102   -0.056844
     13          6           0        5.183825   -0.133271    0.404662
     14          6           0        3.952053   -0.782558    0.441988
     15          7           0       -2.593373    1.196525    0.476795
     16          6           0       -2.776868    2.481390   -0.225437
     17          6           0       -3.081442    1.181236    1.867894
     18          8           0       -4.296462   -0.712359   -0.168148
     19          1           0       -2.344066   -2.215401    0.386477
     20          1           0        0.188869    0.862847    0.443763
     21          1           0        2.002831    1.722507   -0.827963
     22          1           0        4.197927    2.872192   -0.855514
     23          1           0        6.235961    1.682734   -0.078152
     24          1           0        6.070388   -0.654518    0.746776
     25          1           0        3.860877   -1.795233    0.812719
     26          1           0       -2.341422    2.415241   -1.219739
     27          1           0       -2.241617    3.236150    0.351954
     28          1           0       -3.831391    2.767653   -0.297657
     29          1           0       -2.836388    0.224794    2.328943
     30          1           0       -4.160803    1.356129    1.925806
     31          1           0       -2.556184    1.974534    2.401363
     32          1           0       -0.118718   -3.296382   -0.161771
 ---------------------------------------------------------------------

 SCF Done:  E(RHF) =  -1206.06171876     A.U. after   17 cycles
