 Gaussian 16, Revision B.01,

 ----------------------------------------------------------------------
 #p b3lyp/6-31G(d) opt freq NoSymm scf=(MaxCycle=2000,NoVarAcc,NoIncFoc
 k) scrf=(iefpcm,read,solvent=water) MaxDisk=20GB
 ----------------------------------------------------------------------

 -------------------
 SM46_m0.n.6.pdb.xyz
 -------------------
 Symbolic Z-matrix:
 Charge =  0 Multiplicity = 1

 SCF Done:  E(RB3LYP) =  -1211.18791203     A.U. after   13 cycles
 SCF Done:  E(RB3LYP) =  -1211.18799399     A.U. after   10 cycles
 SCF Done:  E(RB3LYP) =  -1211.18806627     A.U. after   10 cycles
 SCF Done:  E(RB3LYP) =  -1211.18809498     A.U. after    9 cycles
 SCF Done:  E(RB3LYP) =  -1211.18811011     A.U. after    8 cycles
 SCF Done:  E(RB3LYP) =  -1211.18811762     A.U. after    9 cycles
 SCF Done:  E(RB3LYP) =  -1211.18812036     A.U. after    8 cycles
 SCF Done:  E(RB3LYP) =  -1211.18812304     A.U. after    9 cycles
 SCF Done:  E(RB3LYP) =  -1211.18811813     A.U. after    9 cycles
 SCF Done:  E(RB3LYP) =  -1211.18811286     A.U. after    8 cycles
 SCF Done:  E(RB3LYP) =  -1211.18811992     A.U. after    9 cycles
 SCF Done:  E(RB3LYP) =  -1211.18811055     A.U. after    9 cycles
 SCF Done:  E(RB3LYP) =  -1211.18812025     A.U. after    9 cycles
 SCF Done:  E(RB3LYP) =  -1211.18811024     A.U. after    9 cycles
 SCF Done:  E(RB3LYP) =  -1211.18812032     A.U. after    9 cycles
 SCF Done:  E(RB3LYP) =  -1211.18810982     A.U. after    9 cycles
 Optimization completed.
    -- Stationary point found.
 Normal termination of Gaussian 16 at Mon Sep 14 02:22:37 2020.

 --------------------------------------------------------------------
 #P Geom=AllCheck Guess=TCheck SCRF=Check GenChk RB3LYP/6-31G(d) Freq
 --------------------------------------------------------------------

 Structure from the checkpoint file:  "SM46_m0.n.6.pdb.xyz.mst.n.w.chk"
 -------------------
 SM46_m0.n.6.pdb.xyz
 -------------------
 Charge =  0 Multiplicity = 1

 SCF Done:  E(RB3LYP) =  -1211.18810982     A.U. after    1 cycles

  Exact polarizability: 294.738 -15.922 218.818  -3.967  19.554 121.426
 Approx polarizability: 314.354 -19.338 266.720  -4.340  25.104 143.620

                      1                      2                      3
                      A                      A                      A
 Frequencies --     24.8445                35.2950                44.1719
 Red. masses --      5.4375                 4.6324                 5.1115
 Frc consts  --      0.0020                 0.0034                 0.0059
 IR Inten    --      6.5093                 1.4909                 3.2063

                      4                      5                      6
                      A                      A                      A
 Frequencies --     63.8758                80.6917                94.2381
 Red. masses --      4.6721                 3.1136                 5.3402
 Frc consts  --      0.0112                 0.0119                 0.0279
 IR Inten    --      4.8403                 0.6874                 2.8786

                      7                      8                      9
                      A                      A                      A
 Frequencies --    135.4341               156.5685               221.4226
 Red. masses --      5.5374                 3.6839                 1.1393
 Frc consts  --      0.0598                 0.0532                 0.0329
 IR Inten    --      0.9242                20.4821                 1.6924

                     10                     11                     12
                      A                      A                      A
 Frequencies --    231.5301               243.6887               270.9691
 Red. masses --      1.1346                 5.2463                 3.6640
 Frc consts  --      0.0358                 0.1836                 0.1585
 IR Inten    --      2.1009                 1.3310                 4.0805

                     13                     14                     15
                      A                      A                      A
 Frequencies --    279.3025               318.4445               349.3780
 Red. masses --      5.4413                 5.9129                 3.2350
 Frc consts  --      0.2501                 0.3533                 0.2327
 IR Inten    --      3.4705                 4.6430                20.3486

                     16                     17                     18
                      A                      A                      A
 Frequencies --    357.1808               374.4976               400.9915
 Red. masses --      3.2218                 5.1992                 5.7287
 Frc consts  --      0.2422                 0.4296                 0.5427
 IR Inten    --     16.4352                 1.0374                13.4377

                     19                     20                     21
                      A                      A                      A
 Frequencies --    420.5687               450.8061               475.2617
 Red. masses --      3.0396                 6.1284                 3.1716
 Frc consts  --      0.3168                 0.7338                 0.4221
 IR Inten    --      0.0900                 3.0655                24.6026

                     22                     23                     24
                      A                      A                      A
 Frequencies --    483.8911               504.5276               541.7414
 Red. masses --      5.3669                 4.3260                 3.8348
 Frc consts  --      0.7404                 0.6488                 0.6631
 IR Inten    --     22.2526                88.5148                 8.6285

                     25                     26                     27
                      A                      A                      A
 Frequencies --    565.6393               627.4005               667.2179
 Red. masses --      8.9815                 6.3350                 3.8095
 Frc consts  --      1.6931                 1.4692                 0.9992
 IR Inten    --    255.0867                 0.1426                44.7044

                     28                     29                     30
                      A                      A                      A
 Frequencies --    680.2335               698.1672               707.6560
 Red. masses --      5.1609                 5.7874                 2.4532
 Frc consts  --      1.4070                 1.6621                 0.7238
 IR Inten    --    132.8391                38.1289                27.1265

                     31                     32                     33
                      A                      A                      A
 Frequencies --    711.3151               779.9364               796.0308
 Red. masses --      6.7507                 1.6205                 1.4933
 Frc consts  --      2.0124                 0.5808                 0.5575
 IR Inten    --     63.7464                76.6443                44.7165

                     34                     35                     36
                      A                      A                      A
 Frequencies --    820.2357               857.6814               859.1045
 Red. masses --      4.2260                 1.4160                 2.5980
 Frc consts  --      1.6751                 0.6137                 1.1297
 IR Inten    --      5.9073                55.3796               209.3810

                     37                     38                     39
                      A                      A                      A
 Frequencies --    940.5283               946.7678               984.3973
 Red. masses --      1.3836                 3.1871                 1.3417
 Frc consts  --      0.7211                 1.6832                 0.7660
 IR Inten    --      6.7468               158.4558                 0.2349

                     40                     41                     42
                      A                      A                      A
 Frequencies --   1007.3033              1011.9106              1019.7152
 Red. masses --      7.6199                 1.2675                 6.0917
 Frc consts  --      4.5553                 0.7647                 3.7321
 IR Inten    --     29.3449                 0.4115                 0.9963

                     43                     44                     45
                      A                      A                      A
 Frequencies --   1049.2323              1064.1009              1066.1391
 Red. masses --      2.5410                 2.9313                 1.8949
 Frc consts  --      1.6482                 1.9556                 1.2690
 IR Inten    --      1.9248               122.6843                 9.0575

                     46                     47                     48
                      A                      A                      A
 Frequencies --   1070.9175              1105.9047              1114.2328
 Red. masses --      2.5347                 1.5198                13.8162
 Frc consts  --      1.7127                 1.0951                10.1063
 IR Inten    --     38.1509                13.3844               290.5468

                     49                     50                     51
                      A                      A                      A
 Frequencies --   1128.7216              1172.8015              1190.4773
 Red. masses --      1.2175                 1.3968                 1.1029
 Frc consts  --      0.9139                 1.1320                 0.9209
 IR Inten    --      2.7858                 2.2275                 0.0459

                     52                     53                     54
                      A                      A                      A
 Frequencies --   1194.3439              1220.5735              1227.4808
 Red. masses --      1.1626                 3.5843                 4.3864
 Frc consts  --      0.9771                 3.1461                 3.8940
 IR Inten    --      0.1135                29.4828                 3.5336

                     55                     56                     57
                      A                      A                      A
 Frequencies --   1245.2807              1278.4885              1285.2338
 Red. masses --      2.0098                 1.9353                 5.3378
 Frc consts  --      1.8363                 1.8637                 5.1949
 IR Inten    --      4.2164                25.8716               224.0938

                     58                     59                     60
                      A                      A                      A
 Frequencies --   1302.5319              1333.2085              1363.3192
 Red. masses --      5.8892                 3.9040                 1.7571
 Frc consts  --      5.8869                 4.0884                 1.9241
 IR Inten    --     80.2229               157.3334                 5.7846

                     61                     62                     63
                      A                      A                      A
 Frequencies --   1365.6779              1442.7375              1452.3728
 Red. masses --      4.5565                 2.2913                 1.2110
 Frc consts  --      5.0070                 2.8100                 1.5051
 IR Inten    --      8.0171               268.7199                32.0736

                     64                     65                     66
                      A                      A                      A
 Frequencies --   1467.0362              1483.6421              1504.2481
 Red. masses --      1.1639                 2.4613                 1.0458
 Frc consts  --      1.4759                 3.1921                 1.3943
 IR Inten    --      3.7055                15.3960                 7.5506

                     67                     68                     69
                      A                      A                      A
 Frequencies --   1514.1033              1515.1589              1518.7926
 Red. masses --      1.1296                 2.2394                 1.0471
 Frc consts  --      1.5257                 3.0290                 1.4231
 IR Inten    --     12.1316                54.9952                12.3980

                     70                     71                     72
                      A                      A                      A
 Frequencies --   1530.0923              1548.1163              1610.2913
 Red. masses --      1.0489                 2.8472                 6.3868
 Frc consts  --      1.4468                 4.0205                 9.7576
 IR Inten    --     25.3628               108.6578               126.3241

                     73                     74                     75
                      A                      A                      A
 Frequencies --   1654.5023              1656.8656              3050.1476
 Red. masses --      6.3806                 5.7694                 1.0461
 Frc consts  --     10.2908                 9.3317                 5.7339
 IR Inten    --     10.7158                26.1691                38.7282

                     76                     77                     78
                      A                      A                      A
 Frequencies --   3052.8996              3144.9449              3146.1904
 Red. masses --      1.0478                 1.0900                 1.0922
 Frc consts  --      5.7540                 6.3517                 6.3697
 IR Inten    --     76.7871                42.2981                10.4639

                     79                     80                     81
                      A                      A                      A
 Frequencies --   3199.1177              3201.3850              3212.9480
 Red. masses --      1.1029                 1.1026                 1.0863
 Frc consts  --      6.6502                 6.6580                 6.6072
 IR Inten    --      7.9472                 7.3872                 0.5375

                     82                     83                     84
                      A                      A                      A
 Frequencies --   3221.8066              3230.7379              3238.7633
 Red. masses --      1.0897                 1.0933                 1.0964
 Frc consts  --      6.6642                 6.7232                 6.7759
 IR Inten    --     16.0586                38.2495                14.7878

                     85                     86                     87
                      A                      A                      A
 Frequencies --   3251.2210              3343.5660              3524.4520
 Red. masses --      1.0937                 1.1002                 1.0752
 Frc consts  --      6.8112                 7.2467                 7.8691
 IR Inten    --      2.5765                 7.4493               174.8258

 - Thermochemistry -
 -------------------
 Temperature   298.150 Kelvin.  Pressure   1.00000 Atm.
 Atom     1 has atomic number  8 and mass  15.99491

 Molecular mass:   267.07900 amu.
 Principal axes and moments of inertia in atomic units:
                           1         2         3
     Eigenvalues --  1757.56515********************
           X            0.99993  -0.00146  -0.01144
           Y            0.00101   0.99923  -0.03925
           Z            0.01149   0.03923   0.99916
 This molecule is an asymmetric top.
 Rotational symmetry number  1.
 Warning -- assumption of classical behavior for rotation
           may cause significant error
 Rotational temperatures (Kelvin)      0.04928     0.00826     0.00761
 Rotational constants (GHZ):           1.02684     0.17220     0.15862
 Zero-point vibrational energy     632437.9 (Joules/Mol)
                                  151.15630 (Kcal/Mol)
 Warning -- explicit consideration of  25 degrees of freedom as
           vibrations may cause significant error
 Vibrational temperatures:     35.75    50.78    63.55    91.90   116.10
          (Kelvin)            135.59   194.86   225.27   318.58   333.12
                              350.61   389.86   401.85   458.17   502.68
                              513.90   538.82   576.94   605.10   648.61
                              683.80   696.21   725.90   779.45   813.83
                              902.69   959.98   978.70  1004.51  1018.16
                             1023.42  1122.15  1145.31  1180.14  1234.01
                             1236.06  1353.21  1362.19  1416.33  1449.28
                             1455.91  1467.14  1509.61  1531.00  1533.94
                             1540.81  1591.15  1603.13  1623.98  1687.40
                             1712.83  1718.39  1756.13  1766.07  1791.68
                             1839.46  1849.16  1874.05  1918.19  1961.51
                             1964.91  2075.78  2089.64  2110.74  2134.63
                             2164.28  2178.46  2179.98  2185.20  2201.46
                             2227.39  2316.85  2380.46  2383.86  4388.48
                             4392.44  4524.87  4526.67  4602.82  4606.08
                             4622.72  4635.46  4648.31  4659.86  4677.78
                             4810.65  5070.90

 Zero-point correction=                           0.240883 (Hartree/Particle)
 Thermal correction to Energy=                    0.257494
 Thermal correction to Enthalpy=                  0.258438
 Thermal correction to Gibbs Free Energy=         0.194732
 Sum of electronic and zero-point Energies=          -1210.947227
 Sum of electronic and thermal Energies=             -1210.930616
 Sum of electronic and thermal Enthalpies=           -1210.929671
 Sum of electronic and thermal Free Energies=        -1210.993378

                     E (Thermal)             CV                S
                      KCal/Mol        Cal/Mol-Kelvin    Cal/Mol-Kelvin
 Total                  161.580             62.691            134.082
 Electronic               0.000              0.000              0.000
 Translational            0.889              2.981             42.646
 Rotational               0.889              2.981             33.704
 Vibrational            159.803             56.730             57.731
 Vibration     1          0.593              1.985              6.204
 Vibration     2          0.594              1.982              5.507
 Vibration     3          0.595              1.980              5.063
 Vibration     4          0.597              1.972              4.334
 Vibration     5          0.600              1.962              3.874
 Vibration     6          0.603              1.953              3.570
 Vibration     7          0.613              1.918              2.867
 Vibration     8          0.620              1.895              2.591
 Vibration     9          0.648              1.808              1.947
 Vibration    10          0.653              1.793              1.867
 Vibration    11          0.659              1.773              1.776
 Vibration    12          0.675              1.727              1.590
 Vibration    13          0.680              1.712              1.538
 Vibration    14          0.705              1.638              1.318
 Vibration    15          0.727              1.577              1.169
 Vibration    16          0.732              1.560              1.134
 Vibration    17          0.746              1.524              1.061
 Vibration    18          0.767              1.468              0.959
 Vibration    19          0.783              1.426              0.890
 Vibration    20          0.810              1.359              0.793
 Vibration    21          0.832              1.305              0.723
 Vibration    22          0.840              1.286              0.700
 Vibration    23          0.860              1.240              0.647
 Vibration    24          0.897              1.158              0.562
 Vibration    25          0.922              1.106              0.513

 Optimization completed.
    -- Stationary point found.
 Normal termination of Gaussian 16 at Mon Sep 14 02:31:13 2020.

 ----------------------------------------------------------------------
 #p b3lyp/6-31G(d) scrf=(iefpcm,read,solvent=water) geom=allcheck guess
 =read
 ----------------------------------------------------------------------

 Structure from the checkpoint file:  "SM46_m0.n.6.pdb.xyz.mst.n.w.chk"
 -------------------
 SM46_m0.n.6.pdb.xyz
 -------------------
 Charge =  0 Multiplicity = 1

 SCF Done:  E(RB3LYP) =  -1211.18810054     A.U. after    6 cycles
 Normal termination of Gaussian 16 at Mon Sep 14 02:31:47 2020.

 -----------------------------
 #p B3LYP/6-31G* geom=allcheck
 -----------------------------

 Structure from the checkpoint file:  "SM46_m0.n.6.pdb.xyz.mst.n.w.chk"
 -------------------
 SM46_m0.n.6.pdb.xyz
 -------------------
 Charge =  0 Multiplicity = 1

 SCF Done:  E(RB3LYP) =  -1211.16423799     A.U. after   15 cycles
 Normal termination of Gaussian 16 at Mon Sep 14 02:32:27 2020.
 Gaussian 16:  ES64L-G16RevB.01 20-Dec-2017

 ----------------------------------------------------------------------
 #p mp2/aug-cc-pVDZ scf=(MaxCycle=2000,NoVarAcc,NoIncFock) maxdisk=180G
 B geom=allcheck
 ----------------------------------------------------------------------

 Structure from the checkpoint file:  "SM46_m0.n.6.pdb.xyz.mst.n.w.chk"
 -------------------
 SM46_m0.n.6.pdb.xyz
 -------------------
 Charge =  0 Multiplicity = 1

                         Standard orientation:
 ---------------------------------------------------------------------
 Center     Atomic      Atomic             Coordinates (Angstroms)
 Number     Number       Type             X           Y           Z
 ---------------------------------------------------------------------
      1          8           0        1.983892    0.490334    1.591130
      2         16           0        2.848617   -0.148860    0.599944
      3          7           0        1.839295   -0.902933   -0.558467
      4          6           0        0.453900   -0.977313   -0.351202
      5          7           0       -0.176591   -2.165416   -0.140896
      6          7           0       -1.463248   -1.947434   -0.037515
      7          6           0       -0.487458    0.029276   -0.371735
      8          7           0       -1.662361   -0.615646   -0.159969
      9          6           0       -2.972871   -0.064000   -0.067631
     10          6           0       -3.138974    1.249708    0.376294
     11          6           0       -4.424951    1.782939    0.454072
     12          6           0       -5.532862    1.007517    0.106627
     13          6           0       -5.351709   -0.307955   -0.326440
     14          6           0       -4.071695   -0.850532   -0.423243
     15          7           0        3.659435    1.066412   -0.203739
     16          6           0        4.625713    0.606088   -1.214116
     17          6           0        2.816159    2.184839   -0.655162
     18          8           0        3.855331   -1.135341    0.998280
     19          1           0        2.248118   -1.794874   -0.838107
     20          1           0       -0.414222    1.090901   -0.528746
     21          1           0       -2.279623    1.841055    0.669526
     22          1           0       -4.557429    2.802852    0.797426
     23          1           0       -6.531417    1.425356    0.173327
     24          1           0       -6.207962   -0.914097   -0.600892
     25          1           0       -3.914639   -1.863564   -0.770776
     26          1           0        5.243981   -0.182988   -0.790839
     27          1           0        5.259228    1.457114   -1.468661
     28          1           0        4.131030    0.244763   -2.124232
     29          1           0        2.175191    2.509054    0.162669
     30          1           0        2.204903    1.914993   -1.525619
     31          1           0        3.483970    3.002956   -0.930144
 ---------------------------------------------------------------------

 SCF Done:  E(RHF) =  -1205.69841110     A.U. after   17 cycles
 E2 =    -0.2809629769D+01 EUMP2 =    -0.12085080408739D+04

 The electronic state is 1-A.
 Alpha  occ. eigenvalues --  -92.25023 -20.56898 -20.56734 -15.68756 -15.65935
 Alpha  occ. eigenvalues --  -15.62905 -15.62371 -15.61924 -11.31852 -11.31458
 Alpha  occ. eigenvalues --  -11.30127 -11.28875 -11.28526 -11.26773 -11.26517
 Alpha  occ. eigenvalues --  -11.26365 -11.26186 -11.25958  -9.21501  -6.90069
 Alpha  occ. eigenvalues --   -6.89996  -6.89952  -1.47811  -1.45642  -1.35135
 Alpha  occ. eigenvalues --   -1.27487  -1.26212  -1.23314  -1.16526  -1.08705
 Alpha  occ. eigenvalues --   -1.04283  -1.03790  -0.99156  -0.96096  -0.90476
 Alpha  occ. eigenvalues --   -0.87826  -0.84380  -0.82206  -0.80949  -0.76876
 Alpha  occ. eigenvalues --   -0.73657  -0.71287  -0.70815  -0.68724  -0.67227
 Alpha  occ. eigenvalues --   -0.66715  -0.65829  -0.65232  -0.63306  -0.62141
 Alpha  occ. eigenvalues --   -0.61434  -0.61146  -0.59122  -0.57972  -0.55113
 Alpha  occ. eigenvalues --   -0.54552  -0.53994  -0.53424  -0.52252  -0.51792
 Alpha  occ. eigenvalues --   -0.50476  -0.50299  -0.48398  -0.47803  -0.45463
 Alpha  occ. eigenvalues --   -0.43643  -0.42025  -0.36118  -0.35869  -0.33002
 Alpha virt. eigenvalues --    0.02521   0.03046   0.03686   0.04277   0.04398
 Alpha virt. eigenvalues --    0.05026   0.05816   0.06252   0.06474   0.07045
 Alpha virt. eigenvalues --    0.07622   0.08190   0.08604   0.08874   0.09142

 Mulliken charges:
               1
     1  O   -1.093321
     2  S    3.057701
     3  N   -0.912447
     4  C    0.430002
     5  N   -0.541919
     6  N   -0.455023
     7  C    1.098697
     8  N   -0.712848
     9  C    0.942604
    10  C    0.349979
    11  C    0.580753
    12  C    0.594732
    13  C    0.531566
    14  C    0.508255
    15  N   -1.150953
    16  C    0.717109
    17  C    0.790879
    18  O   -1.092241
    19  H   -0.039199
    20  H   -0.516996
    21  H   -0.641823
    22  H   -0.443406
    23  H   -0.444057
    24  H   -0.431863
    25  H   -0.525313
    26  H   -0.109126
    27  H   -0.149633
    28  H   -0.009597
    29  H   -0.123483
    30  H   -0.010808
    31  H   -0.198223
 Sum of Mulliken charges =  -0.00000

 Dipole moment (field-independent basis, Debye):
    X=             -1.9883    Y=              5.0352    Z=             -5.0105  Tot=              7.3764
 Quadrupole moment (field-independent basis, Debye-Ang):
   XX=            -96.4186   YY=           -113.1295   ZZ=           -121.1464
   XY=              2.8911   XZ=            -15.0635   YZ=              2.7829

 Normal termination of Gaussian 16 at Mon Sep 14 03:18:44 2020.
