 Gaussian 16, Revision B.01,

 ----------------------------------------------------------------------
 #p b3lyp/6-31G(d) opt freq NoSymm scf=(MaxCycle=2000,NoVarAcc,NoIncFoc
 k) scrf=(iefpcm,read,solvent=water)
 ----------------------------------------------------------------------

 -------------------
 SM46_m3.b.4.pdb.xyz
 -------------------
 Symbolic Z-matrix:
 Charge =  2 Multiplicity = 1

 SCF Done:  E(RB3LYP) =  -1212.06142540     A.U. after   13 cycles
 SCF Done:  E(RB3LYP) =  -1212.06142933     A.U. after    8 cycles
 SCF Done:  E(RB3LYP) =  -1212.06142969     A.U. after    8 cycles
 SCF Done:  E(RB3LYP) =  -1212.06143048     A.U. after    7 cycles
 SCF Done:  E(RB3LYP) =  -1212.06143039     A.U. after    6 cycles
 Optimization completed.
    -- Stationary point found.
 Normal termination of Gaussian 16 at Mon Sep 28 08:27:54 2020.

 --------------------------------------------------------------------
 #P Geom=AllCheck Guess=TCheck SCRF=Check GenChk RB3LYP/6-31G(d) Freq
 --------------------------------------------------------------------

 Structure from the checkpoint file:  "SM46_m3.b.4.pdb.xyz.mst.b.w.chk"
 -------------------
 SM46_m3.b.4.pdb.xyz
 -------------------
 Charge =  2 Multiplicity = 1

 SCF Done:  E(RB3LYP) =  -1212.06143039     A.U. after    1 cycles

  Exact polarizability: 283.312  -4.988 208.122  32.639  -3.250 136.741
 Approx polarizability: 302.868  -0.420 253.678  42.693  -8.853 163.269

                      1                      2                      3
                      A                      A                      A
 Frequencies --     25.3977                37.3090                59.7714
 Red. masses --      4.0746                 4.4345                 6.9563
 Frc consts  --      0.0015                 0.0036                 0.0146
 IR Inten    --      2.8680                 1.2863                 5.1021

                      4                      5                      6
                      A                      A                      A
 Frequencies --     78.5148                89.7626               104.3406
 Red. masses --      4.0401                 4.2110                 3.3108
 Frc consts  --      0.0147                 0.0200                 0.0212
 IR Inten    --      3.3013                 1.0111                 2.6134

                      7                      8                      9
                      A                      A                      A
 Frequencies --    124.2090               190.4308               222.5471
 Red. masses --      6.0149                 4.1466                 1.7209
 Frc consts  --      0.0547                 0.0886                 0.0502
 IR Inten    --      6.2882                 5.6838                 1.3897

                     10                     11                     12
                      A                      A                      A
 Frequencies --    228.1529               248.5256               256.3562
 Red. masses --      1.8615                 6.5252                 1.2854
 Frc consts  --      0.0571                 0.2375                 0.0498
 IR Inten    --      1.1392                 8.8261                 0.7678

                     13                     14                     15
                      A                      A                      A
 Frequencies --    273.8407               303.5437               345.7656
 Red. masses --      3.3006                 3.7733                 7.0263
 Frc consts  --      0.1458                 0.2048                 0.4949
 IR Inten    --      2.8341                17.0828                10.4514

                     16                     17                     18
                      A                      A                      A
 Frequencies --    347.9306               369.2244               412.8151
 Red. masses --      4.6180                 5.3714                 1.8871
 Frc consts  --      0.3294                 0.4314                 0.1895
 IR Inten    --     13.4157                 8.5445               182.9550

                     19                     20                     21
                      A                      A                      A
 Frequencies --    417.6916               422.5443               445.0845
 Red. masses --      2.7992                 3.9893                 2.1138
 Frc consts  --      0.2877                 0.4197                 0.2467
 IR Inten    --     16.8506                39.2312                26.1814

                     22                     23                     24
                      A                      A                      A
 Frequencies --    467.6080               480.2722               536.6801
 Red. masses --      4.6513                 4.9353                 4.5665
 Frc consts  --      0.5992                 0.6707                 0.7749
 IR Inten    --     16.3100                 1.4819                30.3046

                     25                     26                     27
                      A                      A                      A
 Frequencies --    543.8372               602.1728               626.0597
 Red. masses --      5.1746                 5.6424                 6.4346
 Frc consts  --      0.9017                 1.2055                 1.4859
 IR Inten    --     58.2399               251.7141                 2.5434

                     28                     29                     30
                      A                      A                      A
 Frequencies --    664.0300               677.1655               698.7401
 Red. masses --      2.7888                 1.6429                 2.3500
 Frc consts  --      0.7245                 0.4439                 0.6760
 IR Inten    --    111.3626                89.6782                37.9498

                     31                     32                     33
                      A                      A                      A
 Frequencies --    701.5168               708.0691               778.5962
 Red. masses --      4.2960                 3.9771                 1.6904
 Frc consts  --      1.2456                 1.1748                 0.6037
 IR Inten    --     42.1875                27.9029                42.6615

                     34                     35                     36
                      A                      A                      A
 Frequencies --    791.5928               839.3718               850.1329
 Red. masses --      3.8793                 1.6371                 1.2623
 Frc consts  --      1.4322                 0.6796                 0.5375
 IR Inten    --     38.5723                26.6161                 2.6050

                     37                     38                     39
                      A                      A                      A
 Frequencies --    869.5921               899.1732               943.5208
 Red. masses --      3.5266                 5.3004                 1.3676
 Frc consts  --      1.5712                 2.5249                 0.7173
 IR Inten    --     23.9992               183.1264                 5.4875

                     40                     41                     42
                      A                      A                      A
 Frequencies --    985.8158              1008.1544              1010.4140
 Red. masses --      1.3531                 8.2349                 2.4456
 Frc consts  --      0.7748                 4.9313                 1.4711
 IR Inten    --      0.7186                19.7629                20.4335

                     43                     44                     45
                      A                      A                      A
 Frequencies --   1019.6959              1022.8179              1051.6561
 Red. masses --      1.2983                 6.2918                 2.1125
 Frc consts  --      0.7954                 3.8781                 1.3766
 IR Inten    --      0.1580                 1.6061                 3.9745

                     46                     47                     48
                      A                      A                      A
 Frequencies --   1063.1145              1082.6112              1108.9485
 Red. masses --      1.1117                 2.7544                 1.7669
 Frc consts  --      0.7403                 1.9021                 1.2802
 IR Inten    --     15.3047                82.7715                26.1487

                     49                     50                     51
                      A                      A                      A
 Frequencies --   1113.4952              1150.1965              1154.6254
 Red. masses --      2.3138                10.4214                 1.7812
 Frc consts  --      1.6903                 8.1231                 1.3991
 IR Inten    --      1.6536               283.6315                12.6889

                     52                     53                     54
                      A                      A                      A
 Frequencies --   1187.9392              1192.7049              1201.3799
 Red. masses --      1.3170                 1.1130                 1.1402
 Frc consts  --      1.0950                 0.9328                 0.9696
 IR Inten    --     39.6583                 1.0770                 1.8838

                     55                     56                     57
                      A                      A                      A
 Frequencies --   1231.4294              1246.6842              1252.0595
 Red. masses --      2.8751                 1.8523                 1.6609
 Frc consts  --      2.5687                 1.6962                 1.5341
 IR Inten    --     31.1336                22.7976                 2.8907

                     58                     59                     60
                      A                      A                      A
 Frequencies --   1335.1688              1340.3548              1367.0064
 Red. masses --      3.3384                 1.8932                 3.8522
 Frc consts  --      3.5064                 2.0040                 4.2413
 IR Inten    --     12.7278                16.5615                 5.5133

                     61                     62                     63
                      A                      A                      A
 Frequencies --   1378.1334              1379.3538              1395.3542
 Red. masses --      1.8927                 1.6534                 2.2183
 Frc consts  --      2.1180                 1.8535                 2.5447
 IR Inten    --     48.1553               113.8856                26.2028

                     64                     65                     66
                      A                      A                      A
 Frequencies --   1412.0635              1448.0135              1457.6388
 Red. masses --      1.8654                 2.6509                 1.2987
 Frc consts  --      2.1914                 3.2748                 1.6258
 IR Inten    --    205.1203                57.3586                 3.6633

                     67                     68                     69
                      A                      A                      A
 Frequencies --   1474.8283              1475.0876              1501.4696
 Red. masses --      1.1793                 2.0376                 2.0312
 Frc consts  --      1.5113                 2.6122                 2.6980
 IR Inten    --      4.0219                18.7288                36.3307

                     70                     71                     72
                      A                      A                      A
 Frequencies --   1505.5637              1509.4563              1517.1573
 Red. masses --      1.0706                 1.0723                 2.4546
 Frc consts  --      1.4297                 1.4395                 3.3288
 IR Inten    --     39.0226                 5.9580                85.7149

                     73                     74                     75
                      A                      A                      A
 Frequencies --   1523.5035              1538.8501              1539.3750
 Red. masses --      1.0524                 1.1131                 2.1345
 Frc consts  --      1.4392                 1.5530                 2.9802
 IR Inten    --     47.8476                36.4323                25.6356

                     76                     77                     78
                      A                      A                      A
 Frequencies --   1648.8682              1653.7814              1666.0417
 Red. masses --      5.6078                 5.7015                 5.3538
 Frc consts  --      8.9829                 9.1875                 8.7555
 IR Inten    --     93.9622                30.9438               176.1924

                     79                     80                     81
                      A                      A                      A
 Frequencies --   3129.1007              3131.9221              3221.7498
 Red. masses --      1.0296                 1.0305                 1.0868
 Frc consts  --      5.9396                 5.9556                 6.6465
 IR Inten    --      2.7190                 3.3504                 0.3076

                     82                     83                     84
                      A                      A                      A
 Frequencies --   3223.2753              3224.9148              3230.8293
 Red. masses --      1.1079                 1.1074                 1.0896
 Frc consts  --      6.7818                 6.7859                 6.7009
 IR Inten    --      3.2450                 0.4895                10.0887

                     85                     86                     87
                      A                      A                      A
 Frequencies --   3237.7296              3239.2001              3245.5033
 Red. masses --      1.0929                 1.1105                 1.0956
 Frc consts  --      6.7504                 6.8648                 6.7991
 IR Inten    --     24.2552                 2.1142                 8.5395

                     88                     89                     90
                      A                      A                      A
 Frequencies --   3246.8382              3249.2416              3358.2843
 Red. masses --      1.1101                 1.0967                 1.1029
 Frc consts  --      6.8948                 6.8219                 7.3286
 IR Inten    --      1.4706                 4.1113                39.3558

                     91                     92                     93
                      A                      A                      A
 Frequencies --   3384.3248              3478.4373              3500.1814
 Red. masses --      1.0761                 1.0783                 1.0879
 Frc consts  --      7.2620                 7.6870                 7.8529
 IR Inten    --    346.0858               313.0084               671.2725

 - Thermochemistry -
 -------------------
 Temperature   298.150 Kelvin.  Pressure   1.00000 Atm.
 Atom     1 has atomic number  8 and mass  15.99491

 Molecular mass:   269.09465 amu.
 Principal axes and moments of inertia in atomic units:
                           1         2         3
     Eigenvalues --  1866.34238********************
           X            0.99975  -0.00584   0.02159
           Y            0.00416   0.99702   0.07708
           Z           -0.02197  -0.07697   0.99679
 This molecule is an asymmetric top.
 Rotational symmetry number  1.
 Warning -- assumption of classical behavior for rotation
           may cause significant error
 Rotational temperatures (Kelvin)      0.04641     0.00831     0.00801
 Rotational constants (GHZ):           0.96699     0.17310     0.16697
 Zero-point vibrational energy     705403.4 (Joules/Mol)
                                  168.59545 (Kcal/Mol)
 Warning -- explicit consideration of  26 degrees of freedom as
           vibrations may cause significant error
 Vibrational temperatures:     36.54    53.68    86.00   112.97   129.15
          (Kelvin)            150.12   178.71   273.99   320.20   328.26
                              357.57   368.84   394.00   436.73   497.48
                              500.59   531.23   593.95   600.97   607.95
                              640.38   672.78   691.00   772.16   782.46
                              866.39   900.76   955.39   974.29  1005.33
                             1009.33  1018.75  1120.23  1138.93  1207.67
                             1223.15  1251.15  1293.71  1357.52  1418.37
                             1450.51  1453.76  1467.12  1471.61  1513.10
                             1529.58  1557.64  1595.53  1602.07  1654.88
                             1661.25  1709.18  1716.04  1728.52  1771.75
                             1793.70  1801.43  1921.01  1928.47  1966.82
                             1982.83  1984.58  2007.60  2031.64  2083.37
                             2097.22  2121.95  2122.32  2160.28  2166.17
                             2171.77  2182.85  2191.98  2214.06  2214.82
                             2372.35  2379.42  2397.06  4502.08  4506.14
                             4635.38  4637.57  4639.93  4648.44  4658.37
                             4660.49  4669.56  4671.48  4674.93  4831.82
                             4869.29  5004.70  5035.98

 Zero-point correction=                           0.268674 (Hartree/Particle)
 Thermal correction to Energy=                    0.285484
 Thermal correction to Enthalpy=                  0.286428
 Thermal correction to Gibbs Free Energy=         0.223025
 Sum of electronic and zero-point Energies=          -1211.792756
 Sum of electronic and thermal Energies=             -1211.775946
 Sum of electronic and thermal Enthalpies=           -1211.775002
 Sum of electronic and thermal Free Energies=        -1211.838406

                     E (Thermal)             CV                S
                      KCal/Mol        Cal/Mol-Kelvin    Cal/Mol-Kelvin
 Total                  179.144             64.335            133.444
 Electronic               0.000              0.000              0.000
 Translational            0.889              2.981             42.669
 Rotational               0.889              2.981             33.708
 Vibrational            177.367             58.373             57.068
 Vibration     1          0.593              1.985              6.160
 Vibration     2          0.594              1.982              5.397
 Vibration     3          0.597              1.973              4.465
 Vibration     4          0.600              1.964              3.928
 Vibration     5          0.602              1.956              3.665
 Vibration     6          0.605              1.946              3.372
 Vibration     7          0.610              1.929              3.034
 Vibration     8          0.634              1.853              2.224
 Vibration     9          0.648              1.807              1.938
 Vibration    10          0.651              1.798              1.893
 Vibration    11          0.662              1.765              1.741
 Vibration    12          0.666              1.752              1.686
 Vibration    13          0.676              1.722              1.572
 Vibration    14          0.695              1.667              1.397
 Vibration    15          0.724              1.584              1.185
 Vibration    16          0.726              1.579              1.176
 Vibration    17          0.742              1.535              1.083
 Vibration    18          0.777              1.442              0.917
 Vibration    19          0.781              1.432              0.900
 Vibration    20          0.785              1.421              0.883
 Vibration    21          0.804              1.372              0.811
 Vibration    22          0.825              1.322              0.744
 Vibration    23          0.837              1.294              0.709
 Vibration    24          0.892              1.169              0.572
 Vibration    25          0.899              1.153              0.557
 Vibration    26          0.960              1.027              0.446

 Optimization completed.
    -- Stationary point found.
 Normal termination of Gaussian 16 at Mon Sep 28 08:37:49 2020.

 ----------------------------------------------------------------------
 #p b3lyp/6-31G(d) scrf=(iefpcm,read,solvent=water) geom=allcheck guess
 =read
 ----------------------------------------------------------------------

 Structure from the checkpoint file:  "SM46_m3.b.4.pdb.xyz.mst.b.w.chk"
 -------------------
 SM46_m3.b.4.pdb.xyz
 -------------------
 Charge =  2 Multiplicity = 1

 SCF Done:  E(RB3LYP) =  -1212.06126150     A.U. after    7 cycles
 Normal termination of Gaussian 16 at Mon Sep 28 08:38:29 2020.

 -----------------------------
 #p B3LYP/6-31G* geom=allcheck
 -----------------------------

 Structure from the checkpoint file:  "SM46_m3.b.4.pdb.xyz.mst.b.w.chk"
 -------------------
 SM46_m3.b.4.pdb.xyz
 -------------------
 Charge =  2 Multiplicity = 1

 SCF Done:  E(RB3LYP) =  -1211.75454986     A.U. after   16 cycles
 Normal termination of Gaussian 16 at Mon Sep 28 08:39:16 2020.
 Gaussian 16:  ES64L-G16RevB.01 20-Dec-2017

 ----------------------------------------------------------------------
 #p mp2/aug-cc-pVDZ scf=(MaxCycle=2000,NoVarAcc,NoIncFock) maxdisk=120G
 B geom=allcheck
 ----------------------------------------------------------------------

 Structure from the checkpoint file:  "SM46_m3.b.4.pdb.xyz.mst.b.w.chk"
 -------------------
 SM46_m3.b.4.pdb.xyz
 -------------------
 Charge =  2 Multiplicity = 1

                         Standard orientation:
 ---------------------------------------------------------------------
 Center     Atomic      Atomic             Coordinates (Angstroms)
 Number     Number       Type             X           Y           Z
 ---------------------------------------------------------------------
      1          8           0       -3.988096   -1.542156   -0.381363
      2         16           0       -2.801655   -0.912239    0.154696
      3          7           0       -1.856876   -0.453365   -1.116439
      4          6           0       -0.525211   -0.069151   -1.001366
      5          7           0       -0.035236    1.080597   -1.537190
      6          7           0        1.250287    1.232229   -1.326838
      7          6           0        0.550665   -0.667863   -0.385996
      8          7           0        1.593442    0.177882   -0.606867
      9          6           0        2.948573    0.040917   -0.149349
     10          6           0        3.622283    1.178810    0.293511
     11          6           0        4.933813    1.041120    0.741590
     12          6           0        5.546792   -0.213939    0.750685
     13          6           0        4.852169   -1.339526    0.303089
     14          6           0        3.542173   -1.220230   -0.157427
     15          7           0       -3.470718    0.668779    0.916999
     16          6           0       -2.428413    1.438831    1.671490
     17          6           0       -4.237747    1.492975   -0.070691
     18          8           0       -1.960888   -1.458477    1.198979
     19          1           0       -2.362690   -0.216500   -1.976287
     20          1           0        0.629161   -1.572009    0.190540
     21          1           0        3.125502    2.140740    0.297142
     22          1           0        5.470661    1.914506    1.093394
     23          1           0        6.565944   -0.314625    1.106257
     24          1           0        5.330192   -2.312176    0.300727
     25          1           0        3.007438   -2.083709   -0.533772
     26          1           0       -1.911572    0.754632    2.339436
     27          1           0       -2.952663    2.200787    2.245680
     28          1           0       -1.739736    1.907466    0.972530
     29          1           0       -4.948034    0.849448   -0.584129
     30          1           0       -3.544937    1.958128   -0.768111
     31          1           0       -4.769417    2.257802    0.493109
     32          1           0       -4.142613    0.294402    1.611072
     33          1           0       -0.535760    1.787465   -2.084519
 ---------------------------------------------------------------------

 SCF Done:  E(RHF) =  -1206.27940701     A.U. after   18 cycles
 E2 =    -0.2805705018D+01 EUMP2 =    -0.12090851120324D+04

 The electronic state is 1-A.
 Alpha  occ. eigenvalues --  -92.57745 -20.89060 -20.88572 -16.01295 -16.00892
 Alpha  occ. eigenvalues --  -16.00812 -15.99429 -15.96577 -11.66508 -11.60416
 Alpha  occ. eigenvalues --  -11.58236 -11.58199 -11.53093 -11.47915 -11.47664
 Alpha  occ. eigenvalues --  -11.45773 -11.45683 -11.45595  -9.54096  -7.22613
 Alpha  occ. eigenvalues --   -7.22591  -7.22557  -1.80695  -1.79725  -1.67429
 Alpha  occ. eigenvalues --   -1.61253  -1.60671  -1.56647  -1.42422  -1.38972
 Alpha  occ. eigenvalues --   -1.29572  -1.29310  -1.25677  -1.24561  -1.21944
 Alpha  occ. eigenvalues --   -1.19537  -1.16655  -1.12069  -1.07499  -1.06403
 Alpha  occ. eigenvalues --   -1.05269  -1.03624  -1.02008  -1.00861  -0.98846
 Alpha  occ. eigenvalues --   -0.97144  -0.96394  -0.94268  -0.93283  -0.90029
 Alpha  occ. eigenvalues --   -0.89788  -0.87906  -0.87072  -0.86224  -0.85190
 Alpha  occ. eigenvalues --   -0.84508  -0.83960  -0.82708  -0.81765  -0.81458
 Alpha  occ. eigenvalues --   -0.80689  -0.79263  -0.78656  -0.78176  -0.73305
 Alpha  occ. eigenvalues --   -0.72313  -0.71378  -0.67139  -0.56146  -0.55749
 Alpha virt. eigenvalues --   -0.20624  -0.19599  -0.17696  -0.16616  -0.16449
 Alpha virt. eigenvalues --   -0.15238  -0.13918  -0.13016  -0.12732  -0.12461
 Alpha virt. eigenvalues --   -0.12111  -0.11239  -0.10819  -0.10503  -0.09845

 Mulliken charges:
               1
     1  O   -0.946840
     2  S    2.823989
     3  N   -0.865194
     4  C    1.023655
     5  N   -0.376117
     6  N   -0.260906
     7  C    0.908352
     8  N   -0.531793
     9  C    0.900566
    10  C    0.574671
    11  C    0.527739
    12  C    0.599522
    13  C    0.722670
    14  C    0.203531
    15  N   -0.571898
    16  C    0.910821
    17  C    0.779060
    18  O   -1.010286
    19  H   -0.030950
    20  H   -0.486023
    21  H   -0.536437
    22  H   -0.399883
    23  H   -0.404466
    24  H   -0.402897
    25  H   -0.638502
    26  H   -0.089547
    27  H   -0.144703
    28  H   -0.164992
    29  H   -0.096364
    30  H   -0.126568
    31  H   -0.081808
    32  H    0.186116
    33  H    0.005482
 Sum of Mulliken charges =   2.00000

 Dipole moment (field-independent basis, Debye):
    X=             -7.6487    Y=              6.7005    Z=             -0.6244  Tot=             10.1877
 Quadrupole moment (field-independent basis, Debye-Ang):
   XX=              3.4726   YY=            -88.4779   ZZ=            -90.7256
   XY=            -27.0507   XZ=              0.0172   YZ=              2.2795

 Normal termination of Gaussian 16 at Mon Sep 28 09:19:56 2020.
