 Gaussian 16, Revision B.01,

 ----------------------------------------------------------------------
 #p b3lyp/6-31G(d) opt freq NoSymm scf=(MaxCycle=2000,NoVarAcc,NoIncFoc
 k) scrf=(iefpcm,read,solvent=water)
 ----------------------------------------------------------------------

 --------------------
 SM46_m1.a.10.pdb.xyz
 --------------------
 Symbolic Z-matrix:
 Charge = -1 Multiplicity = 1

 SCF Done:  E(RB3LYP) =  -1210.71721174     A.U. after   13 cycles
 SCF Done:  E(RB3LYP) =  -1210.71713979     A.U. after   10 cycles
 SCF Done:  E(RB3LYP) =  -1210.71707159     A.U. after   10 cycles
 SCF Done:  E(RB3LYP) =  -1210.71720978     A.U. after   10 cycles
 SCF Done:  E(RB3LYP) =  -1210.71721386     A.U. after    9 cycles
 SCF Done:  E(RB3LYP) =  -1210.71700490     A.U. after   10 cycles
 SCF Done:  E(RB3LYP) =  -1210.71699427     A.U. after    9 cycles
 SCF Done:  E(RB3LYP) =  -1210.71720641     A.U. after   11 cycles
 SCF Done:  E(RB3LYP) =  -1210.71721378     A.U. after    9 cycles
 SCF Done:  E(RB3LYP) =  -1210.71697828     A.U. after   10 cycles
 SCF Done:  E(RB3LYP) =  -1210.71720568     A.U. after   11 cycles
 SCF Done:  E(RB3LYP) =  -1210.71697548     A.U. after   10 cycles
 SCF Done:  E(RB3LYP) =  -1210.71720552     A.U. after   11 cycles
 SCF Done:  E(RB3LYP) =  -1210.71697545     A.U. after   10 cycles
 SCF Done:  E(RB3LYP) =  -1210.71720563     A.U. after   11 cycles
 SCF Done:  E(RB3LYP) =  -1210.71697560     A.U. after   10 cycles
 Optimization completed on the basis of negligible forces.
    -- Stationary point found.
 Normal termination of Gaussian 16 at Thu Sep 24 16:54:28 2020.

 --------------------------------------------------------------------
 #P Geom=AllCheck Guess=TCheck SCRF=Check GenChk RB3LYP/6-31G(d) Freq
 --------------------------------------------------------------------

 Structure from the checkpoint file:  "SM46_m1.a.10.pdb.xyz.mst.a.w.chk"
 --------------------
 SM46_m1.a.10.pdb.xyz
 --------------------
 Charge = -1 Multiplicity = 1

 SCF Done:  E(RB3LYP) =  -1210.71697560     A.U. after    1 cycles

  Exact polarizability: 296.963 -26.468 150.961 -29.505 -36.666 214.075
 Approx polarizability: 313.336 -32.714 177.215 -36.803 -51.623 262.599

                      1                      2                      3
                      A                      A                      A
 Frequencies --     28.4928                35.7272                58.5668
 Red. masses --      4.3687                 4.5626                 2.9778
 Frc consts  --      0.0021                 0.0034                 0.0060
 IR Inten    --      3.4073                 3.7634                 2.0741

                      4                      5                      6
                      A                      A                      A
 Frequencies --     60.5006                81.0080                86.0513
 Red. masses --      5.2944                 6.3706                 5.1296
 Frc consts  --      0.0114                 0.0246                 0.0224
 IR Inten    --      4.5286                 2.3991                 7.8273

                      7                      8                      9
                      A                      A                      A
 Frequencies --    160.1489               184.1290               215.3607
 Red. masses --      6.6137                 1.8236                 1.9173
 Frc consts  --      0.0999                 0.0364                 0.0524
 IR Inten    --      9.0019                 2.5869                 2.5347

                     10                     11                     12
                      A                      A                      A
 Frequencies --    225.8228               236.6209               276.7630
 Red. masses --      1.0788                 3.6277                 4.3262
 Frc consts  --      0.0324                 0.1197                 0.1952
 IR Inten    --      0.4773                 7.4175                 1.8373

                     13                     14                     15
                      A                      A                      A
 Frequencies --    284.0804               334.1919               345.0815
 Red. masses --      7.5827                 7.4029                 3.3270
 Frc consts  --      0.3605                 0.4871                 0.2334
 IR Inten    --      3.3149                 7.4537                 3.2519

                     16                     17                     18
                      A                      A                      A
 Frequencies --    368.7773               404.2776               417.5656
 Red. masses --      4.2543                 7.5925                 5.5498
 Frc consts  --      0.3409                 0.7311                 0.5701
 IR Inten    --      3.3252                 5.9889                 7.0470

                     19                     20                     21
                      A                      A                      A
 Frequencies --    420.1872               455.7793               487.8103
 Red. masses --      3.5556                 6.2720                 5.7442
 Frc consts  --      0.3699                 0.7677                 0.8053
 IR Inten    --      1.2355                 6.5094                14.2152

                     22                     23                     24
                      A                      A                      A
 Frequencies --    503.8002               531.0864               581.3839
 Red. masses --      5.6182                 3.6786                 9.8865
 Frc consts  --      0.8402                 0.6113                 1.9689
 IR Inten    --     19.2337                 2.3102               129.8007

                     25                     26                     27
                      A                      A                      A
 Frequencies --    628.4689               640.4472               667.1652
 Red. masses --      6.4209                 7.6888                 4.3812
 Frc consts  --      1.4942                 1.8581                 1.1490
 IR Inten    --      1.5751               309.9454                 7.1277

                     28                     29                     30
                      A                      A                      A
 Frequencies --    692.3538               704.1873               705.9828
 Red. masses --      7.2596                 2.2102                 2.3728
 Frc consts  --      2.0503                 0.6457                 0.6968
 IR Inten    --     53.7791                20.5810                18.0068

                     31                     32                     33
                      A                      A                      A
 Frequencies --    747.5406               758.7843               778.2758
 Red. masses --      2.6924                 6.8875                 1.6305
 Frc consts  --      0.8864                 2.3364                 0.5819
 IR Inten    --     62.5788                76.5052                68.8178

                     34                     35                     36
                      A                      A                      A
 Frequencies --    856.1626               926.6651               931.7742
 Red. masses --      1.2490                 3.4411                 1.3954
 Frc consts  --      0.5394                 1.7410                 0.7138
 IR Inten    --      0.4222               256.0520                 6.4644

                     37                     38                     39
                      A                      A                      A
 Frequencies --    947.1534               982.8203              1005.2469
 Red. masses --     10.2106                 1.3376                 7.9366
 Frc consts  --      5.3969                 0.7613                 4.7253
 IR Inten    --    138.8252                 0.2750                76.6791

                     40                     41                     42
                      A                      A                      A
 Frequencies --   1008.3905              1018.1443              1051.7917
 Red. masses --      1.2620                 5.9960                 2.7814
 Frc consts  --      0.7561                 3.6621                 1.8129
 IR Inten    --      0.9233                 6.4127                27.2949

                     43                     44                     45
                      A                      A                      A
 Frequencies --   1056.5050              1058.4364              1070.4893
 Red. masses --      1.5533                 2.8705                 3.2742
 Frc consts  --      1.0216                 1.8947                 2.2107
 IR Inten    --     24.5896                90.4872               247.8731

                     46                     47                     48
                      A                      A                      A
 Frequencies --   1099.0994              1113.2354              1122.0410
 Red. masses --      4.3317                 1.9609                 1.2381
 Frc consts  --      3.0831                 1.4318                 0.9184
 IR Inten    --    302.1723               169.0287                10.8485

                     49                     50                     51
                      A                      A                      A
 Frequencies --   1174.0395              1186.5811              1201.1229
 Red. masses --      1.4320                 1.0999                 2.7974
 Frc consts  --      1.1629                 0.9124                 2.3779
 IR Inten    --     16.1963                 0.9173               134.5164

                     52                     53                     54
                      A                      A                      A
 Frequencies --   1203.5991              1212.3824              1228.7161
 Red. masses --      1.5974                 5.9864                 4.6747
 Frc consts  --      1.3634                 5.1844                 4.1582
 IR Inten    --     92.9429               263.6143                23.0947

                     55                     56                     57
                      A                      A                      A
 Frequencies --   1258.5272              1260.1381              1281.3469
 Red. masses --      2.8947                 1.9000                 4.4733
 Frc consts  --      2.7013                 1.7776                 4.3273
 IR Inten    --     45.2304                 7.8957               257.4929

                     58                     59                     60
                      A                      A                      A
 Frequencies --   1337.2556              1366.9262              1378.4137
 Red. masses --      3.4698                 2.7622                 3.2624
 Frc consts  --      3.6558                 3.0409                 3.6522
 IR Inten    --     87.8680                 1.1301               273.9921

                     61                     62                     63
                      A                      A                      A
 Frequencies --   1440.9238              1451.4928              1457.8558
 Red. masses --      1.1525                 4.3769                 1.1776
 Frc consts  --      1.4099                 5.4331                 1.4746
 IR Inten    --      2.0208               148.5817                 1.9531

                     64                     65                     66
                      A                      A                      A
 Frequencies --   1502.0063              1511.6297              1512.0648
 Red. masses --      1.0502                 1.4273                 1.5623
 Frc consts  --      1.3960                 1.9216                 2.1045
 IR Inten    --     14.6633                 9.8107                22.1550

                     67                     68                     69
                      A                      A                      A
 Frequencies --   1520.0975              1529.3505              1546.5303
 Red. masses --      1.0466                 1.0477                 2.6941
 Frc consts  --      1.4248                 1.4438                 3.7964
 IR Inten    --      4.2912                15.7459               375.3752

                     70                     71                     72
                      A                      A                      A
 Frequencies --   1578.7233              1651.6880              1659.1150
 Red. masses --      6.2469                 6.3236                 5.6962
 Frc consts  --      9.1734                10.1641                 9.2382
 IR Inten    --    391.2763                 7.3579                47.4185

                     73                     74                     75
                      A                      A                      A
 Frequencies --   3020.6782              3031.1053              3116.1777
 Red. masses --      1.0520                 1.0497                 1.0865
 Frc consts  --      5.6554                 5.6821                 6.2161
 IR Inten    --    100.0619               112.3653                51.0681

                     76                     77                     78
                      A                      A                      A
 Frequencies --   3120.7514              3176.6603              3188.7139
 Red. masses --      1.0884                 1.1009                 1.0992
 Frc consts  --      6.2456                 6.5456                 6.5852
 IR Inten    --     37.9356                19.8303                14.2245

                     79                     80                     81
                      A                      A                      A
 Frequencies --   3208.6932              3217.0608              3228.5178
 Red. masses --      1.0862                 1.0901                 1.0948
 Frc consts  --      6.5888                 6.6473                 6.7236
 IR Inten    --      0.7918                23.0323                47.0919

                     82                     83                     84
                      A                      A                      A
 Frequencies --   3240.5169              3255.3646              3353.7002
 Red. masses --      1.0940                 1.0927                 1.0979
 Frc consts  --      6.7683                 6.8229                 7.2752
 IR Inten    --      9.7508                 2.8041                 7.8295

 - Thermochemistry -
 -------------------
 Temperature   298.150 Kelvin.  Pressure   1.00000 Atm.
 Atom     1 has atomic number  8 and mass  15.99491

 Molecular mass:   266.07117 amu.
 Principal axes and moments of inertia in atomic units:
                           1         2         3
     Eigenvalues --  2011.685399735.11407**********
           X            0.99698   0.02807   0.07237
           Y           -0.06744  -0.14839   0.98663
           Z           -0.03843   0.98853   0.14605
 This molecule is an asymmetric top.
 Rotational symmetry number  1.
 Warning -- assumption of classical behavior for rotation
           may cause significant error
 Rotational temperatures (Kelvin)      0.04306     0.00890     0.00831
 Rotational constants (GHZ):           0.89713     0.18538     0.17310
 Zero-point vibrational energy     597910.6 (Joules/Mol)
                                  142.90406 (Kcal/Mol)
 Warning -- explicit consideration of  24 degrees of freedom as
           vibrations may cause significant error
 Vibrational temperatures:     40.99    51.40    84.26    87.05   116.55
          (Kelvin)            123.81   230.42   264.92   309.86   324.91
                              340.44   398.20   408.73   480.83   496.50
                              530.59   581.67   600.78   604.56   655.76
                              701.85   724.86   764.11   836.48   904.23
                              921.46   959.90   996.14  1013.17  1015.75
                             1075.54  1091.72  1119.77  1231.83  1333.26
                             1340.62  1362.74  1414.06  1446.33  1450.85
                             1464.88  1513.29  1520.08  1522.85  1540.20
                             1581.36  1601.70  1614.37  1689.18  1707.23
                             1728.15  1731.71  1744.35  1767.85  1810.74
                             1813.06  1843.57  1924.01  1966.70  1983.23
                             2073.17  2088.37  2097.53  2161.05  2174.90
                             2175.52  2187.08  2200.39  2225.11  2271.43
                             2376.41  2387.10  4346.08  4361.08  4483.48
                             4490.07  4570.51  4587.85  4616.59  4628.63
                             4645.12  4662.38  4683.74  4825.23

 Zero-point correction=                           0.227732 (Hartree/Particle)
 Thermal correction to Energy=                    0.243979
 Thermal correction to Enthalpy=                  0.244923
 Thermal correction to Gibbs Free Energy=         0.182186
 Sum of electronic and zero-point Energies=          -1210.489243
 Sum of electronic and thermal Energies=             -1210.472997
 Sum of electronic and thermal Enthalpies=           -1210.472053
 Sum of electronic and thermal Free Energies=        -1210.534790

                     E (Thermal)             CV                S
                      KCal/Mol        Cal/Mol-Kelvin    Cal/Mol-Kelvin
 Total                  153.099             61.397            132.041
 Electronic               0.000              0.000              0.000
 Translational            0.889              2.981             42.635
 Rotational               0.889              2.981             33.679
 Vibrational            151.321             55.436             55.727
 Vibration     1          0.593              1.984              5.932
 Vibration     2          0.594              1.982              5.483
 Vibration     3          0.596              1.974              4.505
 Vibration     4          0.597              1.973              4.441
 Vibration     5          0.600              1.962              3.866
 Vibration     6          0.601              1.959              3.748
 Vibration     7          0.622              1.891              2.548
 Vibration     8          0.631              1.861              2.286
 Vibration     9          0.645              1.818              1.998
 Vibration    10          0.650              1.802              1.912
 Vibration    11          0.656              1.785              1.828
 Vibration    12          0.678              1.716              1.554
 Vibration    13          0.682              1.703              1.509
 Vibration    14          0.716              1.607              1.240
 Vibration    15          0.723              1.585              1.189
 Vibration    16          0.741              1.536              1.085
 Vibration    17          0.769              1.461              0.947
 Vibration    18          0.781              1.432              0.900
 Vibration    19          0.783              1.426              0.891
 Vibration    20          0.814              1.348              0.778
 Vibration    21          0.844              1.277              0.689
 Vibration    22          0.859              1.242              0.649
 Vibration    23          0.886              1.181              0.585
 Vibration    24          0.938              1.072              0.483

 Optimization completed.
    -- Stationary point found.
 Normal termination of Gaussian 16 at Thu Sep 24 17:02:46 2020.

 ----------------------------------------------------------------------
 #p b3lyp/6-31G(d) scrf=(iefpcm,read,solvent=water) geom=allcheck guess
 =read
 ----------------------------------------------------------------------

 Structure from the checkpoint file:  "SM46_m1.a.10.pdb.xyz.mst.a.w.chk"
 --------------------
 SM46_m1.a.10.pdb.xyz
 --------------------
 Charge = -1 Multiplicity = 1

 SCF Done:  E(RB3LYP) =  -1210.71692370     A.U. after    7 cycles
 Normal termination of Gaussian 16 at Thu Sep 24 17:03:27 2020.

 -----------------------------
 #p B3LYP/6-31G* geom=allcheck
 -----------------------------

 Structure from the checkpoint file:  "SM46_m1.a.10.pdb.xyz.mst.a.w.chk"
 --------------------
 SM46_m1.a.10.pdb.xyz
 --------------------
 Charge = -1 Multiplicity = 1

 SCF Done:  E(RB3LYP) =  -1210.61845884     A.U. after   15 cycles
 Normal termination of Gaussian 16 at Thu Sep 24 17:04:05 2020.
 Gaussian 16:  ES64L-G16RevB.01 20-Dec-2017

 ----------------------------------------------------------------------
 #p mp2/aug-cc-pVDZ scf=(MaxCycle=2000,NoVarAcc,NoIncFock) maxdisk=120G
 B geom=allcheck
 ----------------------------------------------------------------------

 Structure from the checkpoint file:  "SM46_m1.a.10.pdb.xyz.mst.a.w.chk"
 --------------------
 SM46_m1.a.10.pdb.xyz
 --------------------
 Charge = -1 Multiplicity = 1

                         Standard orientation:
 ---------------------------------------------------------------------
 Center     Atomic      Atomic             Coordinates (Angstroms)
 Number     Number       Type             X           Y           Z
 ---------------------------------------------------------------------
      1          8           0       -2.183375    1.115527   -1.446046
      2         16           0       -2.784379    0.046381   -0.604890
      3          7           0       -1.944519   -1.299681   -0.505326
      4          6           0       -0.576884   -1.198812   -0.323965
      5          7           0        0.135844   -2.346661   -0.063831
      6          7           0        1.409463   -2.055178    0.065972
      7          6           0        0.331115   -0.147404   -0.353190
      8          7           0        1.541486   -0.724561   -0.099563
      9          6           0        2.817015   -0.103518   -0.018901
     10          6           0        3.016986    1.149713   -0.605486
     11          6           0        4.269027    1.756633   -0.514290
     12          6           0        5.319484    1.116409    0.145394
     13          6           0        5.109760   -0.138930    0.721333
     14          6           0        3.860986   -0.751633    0.649201
     15          7           0       -2.754131    0.731503    0.982532
     16          6           0       -3.281937    2.101743    1.032649
     17          6           0       -3.389736   -0.128945    1.988426
     18          8           0       -4.180501   -0.321134   -0.952197
     19          1           0        0.203793    0.906807   -0.514251
     20          1           0        2.208278    1.638068   -1.135398
     21          1           0        4.421321    2.729555   -0.969335
     22          1           0        6.292421    1.590920    0.210520
     23          1           0        5.918639   -0.642991    1.239103
     24          1           0        3.684616   -1.717958    1.102931
     25          1           0       -2.777305    2.712683    0.286000
     26          1           0       -3.073658    2.507307    2.026205
     27          1           0       -4.367554    2.144156    0.862029
     28          1           0       -2.980964   -1.137115    1.919481
     29          1           0       -4.481817   -0.174823    1.874741
     30          1           0       -3.158606    0.276663    2.976636
 ---------------------------------------------------------------------

 SCF Done:  E(RHF) =  -1205.15359111     A.U. after   17 cycles
 E2 =    -0.2826354356D+01 EUMP2 =    -0.12079799454700D+04

 The electronic state is 1-A.
 Alpha  occ. eigenvalues --  -92.06213 -20.38877 -20.38387 -15.54852 -15.52154
 Alpha  occ. eigenvalues --  -15.47042 -15.45931 -15.38432 -11.21338 -11.17340
 Alpha  occ. eigenvalues --  -11.17248 -11.16627 -11.16551 -11.16471 -11.16240
 Alpha  occ. eigenvalues --  -11.14444 -11.14043 -11.13840  -9.02676  -6.71238
 Alpha  occ. eigenvalues --   -6.71172  -6.71136  -1.31368  -1.28679  -1.15745
 Alpha  occ. eigenvalues --   -1.12305  -1.09595  -1.06445  -1.04166  -0.94977
 Alpha  occ. eigenvalues --   -0.93804  -0.91815  -0.84171  -0.79159  -0.77930
 Alpha  occ. eigenvalues --   -0.76086  -0.70431  -0.68954  -0.64764  -0.62245
 Alpha  occ. eigenvalues --   -0.58905  -0.56632  -0.55433  -0.54277  -0.52614
 Alpha  occ. eigenvalues --   -0.52403  -0.51621  -0.51326  -0.49706  -0.48301
 Alpha  occ. eigenvalues --   -0.46932  -0.44328  -0.44137  -0.43381  -0.43014
 Alpha  occ. eigenvalues --   -0.42575  -0.40005  -0.38761  -0.36031  -0.34178
 Alpha  occ. eigenvalues --   -0.33364  -0.32652  -0.31455  -0.29651  -0.28903
 Alpha  occ. eigenvalues --   -0.26578  -0.25917  -0.25237  -0.23256  -0.15441
 Alpha virt. eigenvalues --    0.08907   0.10058   0.11069   0.11753   0.12920
 Alpha virt. eigenvalues --    0.13647   0.14037   0.14108   0.15753   0.15863
 Alpha virt. eigenvalues --    0.16574   0.17257   0.17793   0.17982   0.18534

 Mulliken charges:
               1
     1  O   -1.260295
     2  S    3.039346
     3  N   -1.177302
     4  C    0.440611
     5  N   -0.697609
     6  N   -0.479150
     7  C    1.159569
     8  N   -0.720658
     9  C    0.664311
    10  C    0.340970
    11  C    0.572314
    12  C    0.676378
    13  C    0.504969
    14  C    0.780482
    15  N   -1.077349
    16  C    0.749679
    17  C    0.721251
    18  O   -1.240619
    19  H   -0.669506
    20  H   -0.634255
    21  H   -0.464901
    22  H   -0.461997
    23  H   -0.457123
    24  H   -0.534553
    25  H   -0.161121
    26  H   -0.177540
    27  H   -0.055503
    28  H   -0.158127
    29  H   -0.039958
    30  H   -0.182313
 Sum of Mulliken charges =  -1.00000

 Dipole moment (field-independent basis, Debye):
    X=              9.3600    Y=              5.6772    Z=              4.7910  Tot=             11.9497
 Quadrupole moment (field-independent basis, Debye-Ang):
   XX=           -156.1364   YY=           -132.7520   ZZ=           -124.6494
   XY=             -1.7006   XZ=            -14.9033   YZ=             -2.2118

 Normal termination of Gaussian 16 at Thu Sep 24 17:31:33 2020.
