 Gaussian 16, Revision B.01,

 ----------------------------------------------------------------------
 #p b3lyp/6-31G(d) opt freq NoSymm scf=(MaxCycle=2000,NoVarAcc,NoIncFoc
 k) scrf=(iefpcm,read,solvent=water)
 ----------------------------------------------------------------------

 -------------------
 SM46_m2.b.4.pdb.xyz
 -------------------
 Symbolic Z-matrix:
 Charge =  1 Multiplicity = 1

 SCF Done:  E(RB3LYP) =  -1211.63611296     A.U. after   13 cycles
 SCF Done:  E(RB3LYP) =  -1211.63609483     A.U. after    8 cycles
 SCF Done:  E(RB3LYP) =  -1211.63608028     A.U. after    8 cycles
 SCF Done:  E(RB3LYP) =  -1211.63606516     A.U. after    8 cycles
 SCF Done:  E(RB3LYP) =  -1211.63604554     A.U. after    8 cycles
 SCF Done:  E(RB3LYP) =  -1211.63604667     A.U. after    7 cycles
 SCF Done:  E(RB3LYP) =  -1211.63604356     A.U. after    7 cycles
 Optimization completed.
    -- Stationary point found.
 Normal termination of Gaussian 16 at Mon Sep 28 08:29:59 2020.

 --------------------------------------------------------------------
 #P Geom=AllCheck Guess=TCheck SCRF=Check GenChk RB3LYP/6-31G(d) Freq
 --------------------------------------------------------------------

 Structure from the checkpoint file:  "SM46_m2.b.4.pdb.xyz.mst.b.w.chk"
 -------------------
 SM46_m2.b.4.pdb.xyz
 -------------------
 Charge =  1 Multiplicity = 1

 SCF Done:  E(RB3LYP) =  -1211.63604356     A.U. after    1 cycles

  Exact polarizability: 289.514   4.357 193.005  33.984 -34.486 154.497
 Approx polarizability: 306.413  11.254 234.095  40.284 -48.414 184.962

                      1                      2                      3
                      A                      A                      A
 Frequencies --     28.6055                31.6902                60.6602
 Red. masses --      4.4501                 4.1972                 5.0169
 Frc consts  --      0.0021                 0.0025                 0.0109
 IR Inten    --      1.5082                 1.5395                 3.7254

                      4                      5                      6
                      A                      A                      A
 Frequencies --     67.7647                88.4426               101.4109
 Red. masses --      4.8598                 3.2165                 4.5014
 Frc consts  --      0.0131                 0.0148                 0.0273
 IR Inten    --      2.5047                 1.0536                 1.0587

                      7                      8                      9
                      A                      A                      A
 Frequencies --    154.6716               181.6713               196.6801
 Red. masses --      5.4621                 3.0213                 1.1681
 Frc consts  --      0.0770                 0.0588                 0.0266
 IR Inten    --      5.7941                 1.4394                 0.3163

                     10                     11                     12
                      A                      A                      A
 Frequencies --    237.1001               255.7453               264.7495
 Red. masses --      1.1678                 4.4480                 6.0816
 Frc consts  --      0.0387                 0.1714                 0.2512
 IR Inten    --      0.3838                 3.0273                 2.3484

                     13                     14                     15
                      A                      A                      A
 Frequencies --    281.3792               308.5976               340.5941
 Red. masses --      4.6688                 6.8359                 3.2372
 Frc consts  --      0.2178                 0.3836                 0.2213
 IR Inten    --      7.5893                 5.1738                22.8609

                     16                     17                     18
                      A                      A                      A
 Frequencies --    361.4484               366.0369               381.9705
 Red. masses --      3.6275                 3.3253                 6.4017
 Frc consts  --      0.2792                 0.2625                 0.5503
 IR Inten    --     24.9746                33.4575                12.1017

                     19                     20                     21
                      A                      A                      A
 Frequencies --    418.4221               427.4399               459.0308
 Red. masses --      3.0054                 1.6992                 5.6513
 Frc consts  --      0.3100                 0.1829                 0.7016
 IR Inten    --      0.1549               158.2437                13.2675

                     22                     23                     24
                      A                      A                      A
 Frequencies --    481.3799               493.4699               533.1516
 Red. masses --      5.6380                 5.5282                 4.0249
 Frc consts  --      0.7698                 0.7932                 0.6741
 IR Inten    --     56.8943                 7.9969                 7.2690

                     25                     26                     27
                      A                      A                      A
 Frequencies --    549.3182               626.8953               668.6808
 Red. masses --     10.1301                 6.4754                 5.0200
 Frc consts  --      1.8010                 1.4994                 1.3225
 IR Inten    --    236.7503                 0.1258                22.1544

                     28                     29                     30
                      A                      A                      A
 Frequencies --    685.7441               687.6679               697.5221
 Red. masses --      3.9964                 5.5111                 5.5529
 Frc consts  --      1.1072                 1.5355                 1.5918
 IR Inten    --     63.1883               166.3108                46.2539

                     31                     32                     33
                      A                      A                      A
 Frequencies --    701.8220               727.2338               769.0966
 Red. masses --      2.4663                 1.2010                 2.8287
 Frc consts  --      0.7157                 0.3742                 0.9858
 IR Inten    --     53.2431               176.5802                88.0683

                     34                     35                     36
                      A                      A                      A
 Frequencies --    782.0153               793.7155               841.2076
 Red. masses --      1.8259                 1.6312                 5.1381
 Frc consts  --      0.6579                 0.6055                 2.1422
 IR Inten    --    114.4380                23.1198               203.9003

                     37                     38                     39
                      A                      A                      A
 Frequencies --    854.4946               946.0251               953.9852
 Red. masses --      1.2678                 1.3682                 3.0837
 Frc consts  --      0.5454                 0.7214                 1.6535
 IR Inten    --      1.6926                 6.9695               169.0637

                     40                     41                     42
                      A                      A                      A
 Frequencies --    987.5137              1010.0376              1018.3444
 Red. masses --      1.3485                 7.9952                 1.2858
 Frc consts  --      0.7748                 4.8057                 0.7856
 IR Inten    --      0.7393                16.8602                 0.2261

                     43                     44                     45
                      A                      A                      A
 Frequencies --   1023.5546              1052.4845              1071.1976
 Red. masses --      6.4277                 2.0809                 1.5630
 Frc consts  --      3.9676                 1.3581                 1.0567
 IR Inten    --      1.1901                 5.8064                22.4090

                     46                     47                     48
                      A                      A                      A
 Frequencies --   1076.6860              1111.6662              1113.6376
 Red. masses --      2.5193                 2.3169                 2.1142
 Frc consts  --      1.7207                 1.6870                 1.5448
 IR Inten    --     68.3276                10.8835               109.0988

                     49                     50                     51
                      A                      A                      A
 Frequencies --   1121.5490              1139.0953              1177.5947
 Red. masses --      6.6899                 1.2158                 1.3622
 Frc consts  --      4.9580                 0.9295                 1.1129
 IR Inten    --    262.0394                 2.1871                 1.9322

                     52                     53                     54
                      A                      A                      A
 Frequencies --   1190.9523              1204.8207              1217.8658
 Red. masses --      1.1116                 1.2575                 2.1225
 Frc consts  --      0.9289                 1.0755                 1.8548
 IR Inten    --      1.7823                20.0226                77.3083

                     55                     56                     57
                      A                      A                      A
 Frequencies --   1225.6484              1242.4982              1288.8524
 Red. masses --      3.6947                 2.3544                 1.9970
 Frc consts  --      3.2701                 2.1415                 1.9544
 IR Inten    --     31.0948                 3.6398                36.8741

                     58                     59                     60
                      A                      A                      A
 Frequencies --   1307.2297              1344.4820              1350.5605
 Red. masses --      3.1896                 2.9856                 2.9041
 Frc consts  --      3.2113                 3.1798                 3.1209
 IR Inten    --     72.5019               115.3427               183.5965

                     61                     62                     63
                      A                      A                      A
 Frequencies --   1368.7351              1403.0544              1443.2045
 Red. masses --      3.8785                 2.6930                 2.9475
 Frc consts  --      4.2811                 3.1235                 3.6170
 IR Inten    --      4.6697                 5.4073               119.0848

                     64                     65                     66
                      A                      A                      A
 Frequencies --   1459.7480              1465.4987              1469.4611
 Red. masses --      1.1435                 2.2081                 1.1645
 Frc consts  --      1.4356                 2.7941                 1.4815
 IR Inten    --      0.9762                33.7940                11.3735

                     67                     68                     69
                      A                      A                      A
 Frequencies --   1502.2303              1506.4003              1515.8904
 Red. masses --      1.0493                 2.2007                 1.0665
 Frc consts  --      1.3952                 2.9423                 1.4439
 IR Inten    --      3.8667                17.9428                46.9467

                     70                     71                     72
                      A                      A                      A
 Frequencies --   1523.5049              1531.4931              1543.1804
 Red. masses --      1.0499                 2.7074                 1.0733
 Frc consts  --      1.4358                 3.7414                 1.5060
 IR Inten    --     24.4816               145.3189                11.0154

                     73                     74                     75
                      A                      A                      A
 Frequencies --   1543.6409              1652.0283              1655.6079
 Red. masses --      2.3696                 5.7256                 5.6816
 Frc consts  --      3.3267                 9.2068                 9.1756
 IR Inten    --     27.1817               237.0277               104.2566

                     76                     77                     78
                      A                      A                      A
 Frequencies --   1666.8616              3065.9916              3071.6027
 Red. masses --      5.4280                 1.0420                 1.0416
 Frc consts  --      8.8857                 5.7714                 5.7900
 IR Inten    --    393.9417                36.6169                62.2286

                     79                     80                     81
                      A                      A                      A
 Frequencies --   3149.4481              3152.4946              3206.6788
 Red. masses --      1.0967                 1.0988                 1.1026
 Frc consts  --      6.4094                 6.4337                 6.6800
 IR Inten    --     30.8080                14.3787                 4.8324

                     82                     83                     84
                      A                      A                      A
 Frequencies --   3206.8272              3220.5492              3230.2117
 Red. masses --      1.1023                 1.0869                 1.0899
 Frc consts  --      6.6787                 6.6421                 6.7003
 IR Inten    --      4.9030                 0.6962                12.6056

                     85                     86                     87
                      A                      A                      A
 Frequencies --   3237.3412              3248.1614              3252.7849
 Red. masses --      1.0936                 1.0953                 1.0947
 Frc consts  --      6.7528                 6.8088                 6.8242
 IR Inten    --     30.3742                 7.4244                 1.5402

                     88                     89                     90
                      A                      A                      A
 Frequencies --   3378.1219              3523.9543              3542.9450
 Red. masses --      1.1005                 1.0776                 1.0867
 Frc consts  --      7.3994                 7.8846                 8.0369
 IR Inten    --     36.0493               188.8414               623.2191

 - Thermochemistry -
 -------------------
 Temperature   298.150 Kelvin.  Pressure   1.00000 Atm.
 Atom     1 has atomic number  8 and mass  15.99491

 Molecular mass:   268.08682 amu.
 Principal axes and moments of inertia in atomic units:
                           1         2         3
     Eigenvalues --  1886.95209********************
           X            0.99991   0.01154  -0.00733
           Y            0.01323  -0.68091   0.73225
           Z           -0.00346   0.73227   0.68100
 This molecule is an asymmetric top.
 Rotational symmetry number  1.
 Warning -- assumption of classical behavior for rotation
           may cause significant error
 Rotational temperatures (Kelvin)      0.04590     0.00836     0.00810
 Rotational constants (GHZ):           0.95643     0.17416     0.16877
 Zero-point vibrational energy     668840.9 (Joules/Mol)
                                  159.85680 (Kcal/Mol)
 Warning -- explicit consideration of  25 degrees of freedom as
           vibrations may cause significant error
 Vibrational temperatures:     41.16    45.60    87.28    97.50   127.25
          (Kelvin)            145.91   222.54   261.38   282.98   341.13
                              367.96   380.92   404.84   444.00   490.04
                              520.04   526.65   549.57   602.02   614.99
                              660.44   692.60   709.99   767.09   790.35
                              901.96   962.08   986.63   989.40  1003.58
                             1009.77  1046.33  1106.56  1125.15  1141.98
                             1210.31  1229.43  1361.12  1372.57  1420.81
                             1453.22  1465.17  1472.67  1514.29  1541.21
                             1549.11  1599.44  1602.28  1613.66  1638.90
                             1694.30  1713.51  1733.47  1752.24  1763.43
                             1787.68  1854.37  1880.81  1934.41  1943.16
                             1969.30  2018.68  2076.45  2100.25  2108.53
                             2114.23  2161.37  2167.37  2181.03  2191.98
                             2203.48  2220.29  2220.95  2376.90  2382.05
                             2398.24  4411.28  4419.35  4531.35  4535.74
                             4613.70  4613.91  4633.65  4647.55  4657.81
                             4673.38  4680.03  4860.36  5070.18  5097.51

 Zero-point correction=                           0.254748 (Hartree/Particle)
 Thermal correction to Energy=                    0.271454
 Thermal correction to Enthalpy=                  0.272398
 Thermal correction to Gibbs Free Energy=         0.209084
 Sum of electronic and zero-point Energies=          -1211.381296
 Sum of electronic and thermal Energies=             -1211.364590
 Sum of electronic and thermal Enthalpies=           -1211.363646
 Sum of electronic and thermal Free Energies=        -1211.426960

                     E (Thermal)             CV                S
                      KCal/Mol        Cal/Mol-Kelvin    Cal/Mol-Kelvin
 Total                  170.340             63.724            133.255
 Electronic               0.000              0.000              0.000
 Translational            0.889              2.981             42.657
 Rotational               0.889              2.981             33.702
 Vibrational            168.562             57.763             56.895
 Vibration     1          0.593              1.984              5.924
 Vibration     2          0.594              1.983              5.721
 Vibration     3          0.597              1.973              4.436
 Vibration     4          0.598              1.970              4.217
 Vibration     5          0.601              1.957              3.694
 Vibration     6          0.604              1.948              3.427
 Vibration     7          0.620              1.897              2.614
 Vibration     8          0.630              1.865              2.311
 Vibration     9          0.636              1.845              2.164
 Vibration    10          0.656              1.784              1.825
 Vibration    11          0.666              1.753              1.691
 Vibration    12          0.671              1.738              1.630
 Vibration    13          0.681              1.708              1.525
 Vibration    14          0.698              1.657              1.370
 Vibration    15          0.720              1.594              1.209
 Vibration    16          0.736              1.552              1.116
 Vibration    17          0.739              1.542              1.096
 Vibration    18          0.751              1.509              1.031
 Vibration    19          0.781              1.430              0.897
 Vibration    20          0.789              1.411              0.867
 Vibration    21          0.817              1.341              0.769
 Vibration    22          0.838              1.291              0.706
 Vibration    23          0.849              1.265              0.675
 Vibration    24          0.888              1.177              0.580
 Vibration    25          0.905              1.141              0.546

                           ! Non-Optimized Parameters !
 Normal termination of Gaussian 16 at Mon Sep 28 08:39:25 2020.

 ----------------------------------------------------------------------
 #p b3lyp/6-31G(d) scrf=(iefpcm,read,solvent=water) geom=allcheck guess
 =read
 ----------------------------------------------------------------------

 Structure from the checkpoint file:  "SM46_m2.b.4.pdb.xyz.mst.b.w.chk"
 -------------------
 SM46_m2.b.4.pdb.xyz
 -------------------
 Charge =  1 Multiplicity = 1

 SCF Done:  E(RB3LYP) =  -1211.63599572     A.U. after    7 cycles
 Normal termination of Gaussian 16 at Mon Sep 28 08:40:01 2020.

 -----------------------------
 #p B3LYP/6-31G* geom=allcheck
 -----------------------------

 Structure from the checkpoint file:  "SM46_m2.b.4.pdb.xyz.mst.b.w.chk"
 -------------------
 SM46_m2.b.4.pdb.xyz
 -------------------
 Charge =  1 Multiplicity = 1

 SCF Done:  E(RB3LYP) =  -1211.53217099     A.U. after   16 cycles

 The electronic state is 1-A.
 Alpha  occ. eigenvalues --  -89.27130 -19.28504 -19.27823 -14.63688 -14.62566
 Alpha  occ. eigenvalues --  -14.59525 -14.55130 -14.51327 -10.47321 -10.41130
 Alpha  occ. eigenvalues --  -10.38694 -10.35009 -10.34583 -10.33938 -10.33599
 Alpha  occ. eigenvalues --  -10.32548 -10.32463 -10.32357  -8.29316  -6.25904
 Alpha  occ. eigenvalues --   -6.25691  -6.25664  -1.32432  -1.26313  -1.15468
 Alpha  occ. eigenvalues --   -1.14384  -1.10723  -1.07506  -1.00311  -1.00108
 Alpha  occ. eigenvalues --   -0.92707  -0.89004  -0.86181  -0.85499  -0.84685
 Alpha  occ. eigenvalues --   -0.83343  -0.78017  -0.76074  -0.74983  -0.73643
 Alpha  occ. eigenvalues --   -0.69524  -0.68667  -0.68278  -0.67798  -0.63590
 Alpha  occ. eigenvalues --   -0.63549  -0.62600  -0.61126  -0.59623  -0.59222
 Alpha  occ. eigenvalues --   -0.57242  -0.56866  -0.56433  -0.55977  -0.54289
 Alpha  occ. eigenvalues --   -0.53650  -0.52503  -0.51837  -0.51451  -0.49581
 Alpha  occ. eigenvalues --   -0.49272  -0.48270  -0.48159  -0.46025  -0.45104
 Alpha  occ. eigenvalues --   -0.43794  -0.42584  -0.39060  -0.38913  -0.38405
 Alpha virt. eigenvalues --   -0.21719  -0.15243  -0.13793  -0.12524  -0.10962
 Alpha virt. eigenvalues --   -0.08560  -0.07159  -0.04853  -0.03788  -0.03701
 Alpha virt. eigenvalues --   -0.02762  -0.01721  -0.00392   0.01298   0.01729

 Mulliken charges:
               1
     1  O   -0.486789
     2  S    1.343631
     3  N   -0.791008
     4  C    0.574543
     5  N   -0.460400
     6  N    0.017481
     7  C    0.053941
     8  N   -0.333200
     9  C    0.305725
    10  C   -0.134163
    11  C   -0.136852
    12  C   -0.102256
    13  C   -0.137842
    14  C   -0.155670
    15  N   -0.475755
    16  C   -0.340843
    17  C   -0.346317
    18  O   -0.532174
    19  H    0.379737
    20  H    0.270489
    21  H    0.185723
    22  H    0.182923
    23  H    0.183744
    24  H    0.183877
    25  H    0.176281
    26  H    0.212407
    27  H    0.211893
    28  H    0.153296
    29  H    0.232735
    30  H    0.151197
    31  H    0.210185
    32  H    0.403462
 Sum of Mulliken charges =   1.00000

 Dipole moment (field-independent basis, Debye):
    X=              2.9861    Y=              5.4924    Z=              2.9752  Tot=              6.9235
 Quadrupole moment (field-independent basis, Debye-Ang):
   XX=            -58.2357   YY=            -91.2996   ZZ=           -103.8575
   XY=            -18.7385   XZ=             -9.6324   YZ=             -2.7631

 Normal termination of Gaussian 16 at Mon Sep 28 08:40:47 2020.
 Gaussian 16:  ES64L-G16RevB.01 20-Dec-2017

 ----------------------------------------------------------------------
 #p mp2/aug-cc-pVDZ scf=(MaxCycle=2000,NoVarAcc,NoIncFock) maxdisk=120G
 B geom=allcheck
 ----------------------------------------------------------------------

 Structure from the checkpoint file:  "SM46_m2.b.4.pdb.xyz.mst.b.w.chk"
 -------------------
 SM46_m2.b.4.pdb.xyz
 -------------------
 Charge =  1 Multiplicity = 1

                         Standard orientation:
 ---------------------------------------------------------------------
 Center     Atomic      Atomic             Coordinates (Angstroms)
 Number     Number       Type             X           Y           Z
 ---------------------------------------------------------------------
      1          8           0       -4.001577   -0.478789   -1.372718
      2         16           0       -2.849103   -0.580352   -0.486195
      3          7           0       -1.883885    0.767171   -0.938592
      4          6           0       -0.542709    0.869197   -0.664734
      5          7           0        0.101128    2.062683   -0.569130
      6          7           0        1.403087    1.942229   -0.365389
      7          6           0        0.451798   -0.077441   -0.484195
      8          7           0        1.593753    0.640682   -0.299421
      9          6           0        2.909162    0.121740   -0.059596
     10          6           0        3.813801    0.880923    0.682184
     11          6           0        5.087681    0.365207    0.908230
     12          6           0        5.440047   -0.890407    0.407733
     13          6           0        4.517300   -1.635744   -0.328778
     14          6           0        3.241479   -1.131273   -0.572748
     15          7           0       -3.401516   -0.434157    1.063432
     16          6           0       -2.428584   -0.608239    2.153973
     17          6           0       -4.441241    0.576386    1.314793
     18          8           0       -1.927939   -1.712701   -0.527378
     19          1           0       -2.403301    1.641720   -1.029880
     20          1           0        0.407036   -1.149085   -0.452043
     21          1           0        3.519196    1.844804    1.077074
     22          1           0        5.800309    0.943020    1.485594
     23          1           0        6.431817   -1.287500    0.592263
     24          1           0        4.789308   -2.607692   -0.723762
     25          1           0        2.526967   -1.693331   -1.161389
     26          1           0       -1.736782   -1.408996    1.901241
     27          1           0       -2.992145   -0.892648    3.044039
     28          1           0       -1.876497    0.314942    2.360986
     29          1           0       -5.158706    0.573399    0.497143
     30          1           0       -4.016257    1.578464    1.438929
     31          1           0       -4.951051    0.289272    2.235672
     32          1           0       -0.298479    2.998836   -0.663453
 ---------------------------------------------------------------------

 SCF Done:  E(RHF) =  -1206.06094453     A.U. after   17 cycles
