 Gaussian 16, Revision B.01,

 ----------------------------------------------------------------------
 #p b3lyp/6-31G(d) opt freq NoSymm scf=(MaxCycle=2000,NoVarAcc,NoIncFoc
 k) scrf=(iefpcm,read,solvent=water)
 ----------------------------------------------------------------------

 -------------------
 SM46_m3.b.6.pdb.xyz
 -------------------
 Symbolic Z-matrix:
 Charge =  2 Multiplicity = 1

 SCF Done:  E(RB3LYP) =  -1212.06150874     A.U. after   13 cycles
 SCF Done:  E(RB3LYP) =  -1212.06139955     A.U. after   10 cycles
 SCF Done:  E(RB3LYP) =  -1212.06129055     A.U. after   10 cycles
 SCF Done:  E(RB3LYP) =  -1212.06149988     A.U. after   10 cycles
 SCF Done:  E(RB3LYP) =  -1212.06150961     A.U. after    9 cycles
 SCF Done:  E(RB3LYP) =  -1212.06138273     A.U. after   10 cycles
 SCF Done:  E(RB3LYP) =  -1212.06137507     A.U. after    9 cycles
 SCF Done:  E(RB3LYP) =  -1212.06150417     A.U. after   10 cycles
 SCF Done:  E(RB3LYP) =  -1212.06150939     A.U. after    8 cycles
 SCF Done:  E(RB3LYP) =  -1212.06150991     A.U. after    8 cycles
 SCF Done:  E(RB3LYP) =  -1212.06150982     A.U. after    9 cycles
 SCF Done:  E(RB3LYP) =  -1212.06134308     A.U. after   10 cycles
 SCF Done:  E(RB3LYP) =  -1212.06134281     A.U. after    7 cycles
 SCF Done:  E(RB3LYP) =  -1212.06150522     A.U. after   10 cycles
 SCF Done:  E(RB3LYP) =  -1212.06150976     A.U. after    8 cycles
 SCF Done:  E(RB3LYP) =  -1212.06134225     A.U. after   10 cycles
 Optimization completed.
    -- Stationary point found.
 Normal termination of Gaussian 16 at Thu Sep 24 18:02:19 2020.

 --------------------------------------------------------------------
 #P Geom=AllCheck Guess=TCheck SCRF=Check GenChk RB3LYP/6-31G(d) Freq
 --------------------------------------------------------------------

 Structure from the checkpoint file:  "SM46_m3.b.6.pdb.xyz.mst.b.w.chk"
 -------------------
 SM46_m3.b.6.pdb.xyz
 -------------------
 Charge =  2 Multiplicity = 1

 SCF Done:  E(RB3LYP) =  -1212.06134225     A.U. after    1 cycles

  Exact polarizability: 289.433 -17.781 211.494   3.230  23.518 126.382
 Approx polarizability: 310.168 -20.950 256.595   2.715  30.374 151.302

                      1                      2                      3
                      A                      A                      A
 Frequencies --     27.1442                45.2855                55.6483
 Red. masses --      3.8183                 7.3445                 4.8082
 Frc consts  --      0.0017                 0.0089                 0.0088
 IR Inten    --      0.6002                 7.5002                 3.4654

                      4                      5                      6
                      A                      A                      A
 Frequencies --     77.1199                95.8187               105.5914
 Red. masses --      4.4659                 3.6606                 4.2984
 Frc consts  --      0.0156                 0.0198                 0.0282
 IR Inten    --      1.1108                 1.6446                 4.0103

                      7                      8                      9
                      A                      A                      A
 Frequencies --    145.1518               182.3995               226.1735
 Red. masses --      5.1543                 4.3788                 2.5051
 Frc consts  --      0.0640                 0.0858                 0.0755
 IR Inten    --      0.7640                 6.1727                 2.2095

                     10                     11                     12
                      A                      A                      A
 Frequencies --    239.8169               242.4582               262.7964
 Red. masses --      1.3966                 4.6481                 6.3663
 Frc consts  --      0.0473                 0.1610                 0.2590
 IR Inten    --      0.4849                 3.4213                 4.8532

                     13                     14                     15
                      A                      A                      A
 Frequencies --    308.6550               323.6920               330.4086
 Red. masses --      3.3341                 4.8438                 1.2018
 Frc consts  --      0.1871                 0.2990                 0.0773
 IR Inten    --      8.4556                 1.2223                 0.9836

                     16                     17                     18
                      A                      A                      A
 Frequencies --    358.2899               395.3829               416.5110
 Red. masses --      3.6593                 4.9463                 3.1325
 Frc consts  --      0.2768                 0.4556                 0.3202
 IR Inten    --     27.7175                16.6058                 1.4082

                     19                     20                     21
                      A                      A                      A
 Frequencies --    417.0966               428.5955               453.2320
 Red. masses --      4.5974                 3.4093                 2.8829
 Frc consts  --      0.4712                 0.3690                 0.3489
 IR Inten    --     11.6363                15.6434                68.8470

                     22                     23                     24
                      A                      A                      A
 Frequencies --    468.6137               476.3829               541.8382
 Red. masses --      4.4262                 2.4250                 3.8950
 Frc consts  --      0.5727                 0.3243                 0.6737
 IR Inten    --     54.6869                37.0918                56.4761

                     25                     26                     27
                      A                      A                      A
 Frequencies --    550.1221               604.8456               626.1075
 Red. masses --      6.9006                 5.5280                 6.3318
 Frc consts  --      1.2304                 1.1915                 1.4624
 IR Inten    --    101.7818               227.4426                 0.7374

                     28                     29                     30
                      A                      A                      A
 Frequencies --    660.1154               671.6511               696.9134
 Red. masses --      1.5960                 2.4887                 2.0601
 Frc consts  --      0.4098                 0.6615                 0.5895
 IR Inten    --    111.3121                73.6292                50.1018

                     31                     32                     33
                      A                      A                      A
 Frequencies --    703.2900               710.2895               781.3946
 Red. masses --      6.5496                 4.0115                 1.6556
 Frc consts  --      1.9087                 1.1924                 0.5956
 IR Inten    --     41.7278                 8.7370                65.0976

                     34                     35                     36
                      A                      A                      A
 Frequencies --    811.6366               833.5467               851.6610
 Red. masses --      2.9954                 1.7497                 1.2986
 Frc consts  --      1.1626                 0.7163                 0.5549
 IR Inten    --     59.5071                23.7975                17.2153

                     37                     38                     39
                      A                      A                      A
 Frequencies --    864.7965               878.5902               944.2139
 Red. masses --      3.4528                 4.6088                 1.3684
 Frc consts  --      1.5214                 2.0961                 0.7188
 IR Inten    --     31.9527               209.6619                 6.6608

                     40                     41                     42
                      A                      A                      A
 Frequencies --    986.7832              1002.8056              1007.6739
 Red. masses --      1.3506                 2.6674                 7.2107
 Frc consts  --      0.7749                 1.5804                 4.3139
 IR Inten    --      0.7757                27.2708                11.8848

                     43                     44                     45
                      A                      A                      A
 Frequencies --   1020.3131              1022.5480              1052.8259
 Red. masses --      1.2895                 6.3026                 2.1564
 Frc consts  --      0.7909                 3.8827                 1.4083
 IR Inten    --      0.1845                 1.0813                 4.8621

                     46                     47                     48
                      A                      A                      A
 Frequencies --   1075.9539              1083.6256              1113.1169
 Red. masses --      1.8394                 1.4837                 1.5301
 Frc consts  --      1.2546                 1.0265                 1.1170
 IR Inten    --     54.7049                52.8708                16.3695

                     49                     50                     51
                      A                      A                      A
 Frequencies --   1116.2441              1151.8402              1158.1665
 Red. masses --      2.7162                11.1427                 1.7329
 Frc consts  --      1.9941                 8.7101                 1.3695
 IR Inten    --     14.9818               242.1588                13.2536

                     52                     53                     54
                      A                      A                      A
 Frequencies --   1190.5293              1194.1479              1200.9195
 Red. masses --      1.3338                 1.1059                 1.1481
 Frc consts  --      1.1138                 0.9292                 0.9755
 IR Inten    --     20.0934                 0.8569                 2.5330

                     55                     56                     57
                      A                      A                      A
 Frequencies --   1223.0546              1241.1611              1255.4897
 Red. masses --      2.3969                 1.7813                 1.6748
 Frc consts  --      2.1124                 1.6167                 1.5554
 IR Inten    --     27.1473                12.3767                 5.1307

                     58                     59                     60
                      A                      A                      A
 Frequencies --   1335.3073              1341.2215              1368.8719
 Red. masses --      2.5757                 2.4285                 4.1071
 Frc consts  --      2.7059                 2.5738                 4.5343
 IR Inten    --     13.9314                 9.8636                14.0998

                     61                     62                     63
                      A                      A                      A
 Frequencies --   1379.9967              1394.1674              1415.7692
 Red. masses --      3.0253                 4.6479                 1.2287
 Frc consts  --      3.3945                 5.3228                 1.4510
 IR Inten    --    163.3602               104.0109                34.1094

                     64                     65                     66
                      A                      A                      A
 Frequencies --   1438.8332              1452.1772              1465.0494
 Red. masses --      2.4618                 1.2005                 2.3653
 Frc consts  --      3.0028                 1.4915                 2.9912
 IR Inten    --     55.8996                 7.4138                 1.2891

                     67                     68                     69
                      A                      A                      A
 Frequencies --   1469.8563              1473.6514              1496.5169
 Red. masses --      1.3315                 1.2039                 2.0049
 Frc consts  --      1.6949                 1.5404                 2.6455
 IR Inten    --     23.2058                37.6139                86.3537

                     70                     71                     72
                      A                      A                      A
 Frequencies --   1504.3447              1513.4544              1517.9230
 Red. masses --      1.0400                 1.1158                 2.2695
 Frc consts  --      1.3867                 1.5058                 3.0810
 IR Inten    --     31.4001                19.3744                71.3869

                     73                     74                     75
                      A                      A                      A
 Frequencies --   1529.3405              1540.7714              1549.0600
 Red. masses --      1.0453                 2.3879                 1.0513
 Frc consts  --      1.4404                 3.3400                 1.4863
 IR Inten    --     65.0479                29.7406                35.6239

                     76                     77                     78
                      A                      A                      A
 Frequencies --   1646.9118              1653.2480              1664.8826
 Red. masses --      5.5596                 5.6998                 5.9487
 Frc consts  --      8.8845                 9.1788                 9.7149
 IR Inten    --    166.3398                23.3578               129.1085

                     79                     80                     81
                      A                      A                      A
 Frequencies --   3128.9561              3130.7135              3221.1509
 Red. masses --      1.0291                 1.0300                 1.0871
 Frc consts  --      5.9359                 5.9479                 6.6455
 IR Inten    --      2.1256                 3.9893                 0.7988

                     82                     83                     84
                      A                      A                      A
 Frequencies --   3225.1482              3227.4495              3231.5505
 Red. masses --      1.1084                 1.1093                 1.0895
 Frc consts  --      6.7927                 6.8082                 6.7035
 IR Inten    --      1.8592                 1.4750                 9.0649

                     85                     86                     87
                      A                      A                      A
 Frequencies --   3237.2601              3241.5216              3242.7480
 Red. masses --      1.0932                 1.1100                 1.1104
 Frc consts  --      6.7499                 6.8716                 6.8793
 IR Inten    --     24.3082                 1.9435                 2.2652

                     88                     89                     90
                      A                      A                      A
 Frequencies --   3245.2600              3253.3337              3354.8223
 Red. masses --      1.0968                 1.0949                 1.0772
 Frc consts  --      6.8057                 6.8276                 7.1434
 IR Inten    --     11.9077                 1.8578               314.7307

                     91                     92                     93
                      A                      A                      A
 Frequencies --   3358.7434              3451.9645              3489.3492
 Red. masses --      1.1024                 1.0772                 1.0879
 Frc consts  --      7.3271                 7.5627                 7.8042
 IR Inten    --     33.1792               312.4897               665.6895

 - Thermochemistry -
 -------------------
 Temperature   298.150 Kelvin.  Pressure   1.00000 Atm.
 Atom     1 has atomic number  8 and mass  15.99491

 Molecular mass:   269.09465 amu.
 Principal axes and moments of inertia in atomic units:
                           1         2         3
     Eigenvalues --  1837.29129********************
           X            0.99969   0.00139  -0.02473
           Y           -0.00196   0.99973  -0.02333
           Z            0.02469   0.02337   0.99942
 This molecule is an asymmetric top.
 Rotational symmetry number  1.
 Warning -- assumption of classical behavior for rotation
           may cause significant error
 Rotational temperatures (Kelvin)      0.04714     0.00818     0.00760
 Rotational constants (GHZ):           0.98228     0.17036     0.15826
 Zero-point vibrational energy     706405.6 (Joules/Mol)
                                  168.83500 (Kcal/Mol)
 Warning -- explicit consideration of  26 degrees of freedom as
           vibrations may cause significant error
 Vibrational temperatures:     39.05    65.16    80.07   110.96   137.86
          (Kelvin)            151.92   208.84   262.43   325.41   345.04
                              348.84   378.11   444.09   465.72   475.38
                              515.50   568.87   599.27   600.11   616.65
                              652.10   674.23   685.41   779.58   791.50
                              870.24   900.83   949.76   966.36  1002.70
                             1011.88  1021.95  1124.25  1167.76  1199.29
                             1225.35  1244.25  1264.10  1358.51  1419.76
                             1442.81  1449.82  1468.00  1471.22  1514.78
                             1548.06  1559.10  1601.53  1606.03  1657.24
                             1666.34  1712.91  1718.11  1727.86  1759.70
                             1785.75  1806.37  1921.21  1929.72  1969.50
                             1985.51  2005.90  2036.98  2070.16  2089.36
                             2107.88  2114.80  2120.26  2153.15  2164.42
                             2177.52  2183.95  2200.38  2216.83  2228.75
                             2369.54  2378.66  2395.39  4501.87  4504.40
                             4634.52  4640.27  4643.58  4649.48  4657.70
                             4663.83  4665.59  4669.21  4680.82  4826.84
                             4832.48  4966.61  5020.40

 Zero-point correction=                           0.269056 (Hartree/Particle)
 Thermal correction to Energy=                    0.285683
 Thermal correction to Enthalpy=                  0.286627
 Thermal correction to Gibbs Free Energy=         0.223811
 Sum of electronic and zero-point Energies=          -1211.792287
 Sum of electronic and thermal Energies=             -1211.775659
 Sum of electronic and thermal Enthalpies=           -1211.774715
 Sum of electronic and thermal Free Energies=        -1211.837532

                     E (Thermal)             CV                S
                      KCal/Mol        Cal/Mol-Kelvin    Cal/Mol-Kelvin
 Total                  179.269             64.061            132.209
 Electronic               0.000              0.000              0.000
 Translational            0.889              2.981             42.669
 Rotational               0.889              2.981             33.762
 Vibrational            177.491             58.099             55.779
 Vibration     1          0.593              1.984              6.028
 Vibration     2          0.595              1.979              5.013
 Vibration     3          0.596              1.975              4.606
 Vibration     4          0.599              1.964              3.963
 Vibration     5          0.603              1.952              3.538
 Vibration     6          0.605              1.945              3.348
 Vibration     7          0.617              1.908              2.735
 Vibration     8          0.630              1.864              2.304
 Vibration     9          0.650              1.801              1.909
 Vibration    10          0.657              1.780              1.804
 Vibration    11          0.659              1.775              1.785
 Vibration    12          0.670              1.741              1.643
 Vibration    13          0.698              1.657              1.370
 Vibration    14          0.708              1.628              1.291
 Vibration    15          0.713              1.615              1.258
 Vibration    16          0.733              1.558              1.130
 Vibration    17          0.762              1.480              0.980
 Vibration    18          0.780              1.434              0.904
 Vibration    19          0.780              1.433              0.902
 Vibration    20          0.790              1.408              0.863
 Vibration    21          0.812              1.354              0.786
 Vibration    22          0.826              1.320              0.741
 Vibration    23          0.833              1.302              0.720
 Vibration    24          0.897              1.158              0.561
 Vibration    25          0.905              1.139              0.544
 Vibration    26          0.963              1.022              0.441

 Optimization completed.
    -- Stationary point found.
 Normal termination of Gaussian 16 at Thu Sep 24 18:11:44 2020.

 ----------------------------------------------------------------------
 #p b3lyp/6-31G(d) scrf=(iefpcm,read,solvent=water) geom=allcheck guess
 =read
 ----------------------------------------------------------------------

 Structure from the checkpoint file:  "SM46_m3.b.6.pdb.xyz.mst.b.w.chk"
 -------------------
 SM46_m3.b.6.pdb.xyz
 -------------------
 Charge =  2 Multiplicity = 1

 SCF Done:  E(RB3LYP) =  -1212.06133445     A.U. after    6 cycles
 Normal termination of Gaussian 16 at Thu Sep 24 18:12:15 2020.

 -----------------------------
 #p B3LYP/6-31G* geom=allcheck
 -----------------------------

 Structure from the checkpoint file:  "SM46_m3.b.6.pdb.xyz.mst.b.w.chk"
 -------------------
 SM46_m3.b.6.pdb.xyz
 -------------------
 Charge =  2 Multiplicity = 1

 SCF Done:  E(RB3LYP) =  -1211.75951812     A.U. after   16 cycles
 Normal termination of Gaussian 16 at Thu Sep 24 18:12:59 2020.
 Gaussian 16:  ES64L-G16RevB.01 20-Dec-2017

 ----------------------------------------------------------------------
 #p mp2/aug-cc-pVDZ scf=(MaxCycle=2000,NoVarAcc,NoIncFock) maxdisk=120G
 B geom=allcheck
 ----------------------------------------------------------------------

 Structure from the checkpoint file:  "SM46_m3.b.6.pdb.xyz.mst.b.w.chk"
 -------------------
 SM46_m3.b.6.pdb.xyz
 -------------------
 Charge =  2 Multiplicity = 1

                         Standard orientation:
 ---------------------------------------------------------------------
 Center     Atomic      Atomic             Coordinates (Angstroms)
 Number     Number       Type             X           Y           Z
 ---------------------------------------------------------------------
      1          8           0        2.014935    0.502363    1.657208
      2         16           0        2.820748   -0.201769    0.682857
      3          7           0        1.835402   -0.877301   -0.478997
      4          6           0        0.452231   -0.928932   -0.315019
      5          7           0       -0.225482   -2.094539   -0.135599
      6          7           0       -1.520542   -1.923951   -0.037953
      7          6           0       -0.516109    0.049031   -0.314847
      8          7           0       -1.687735   -0.615906   -0.131684
      9          6           0       -3.007347   -0.056598   -0.055799
     10          6           0       -3.172637    1.203213    0.518292
     11          6           0       -4.457011    1.739832    0.585560
     12          6           0       -5.547643    1.019637    0.094220
     13          6           0       -5.358239   -0.243134   -0.472443
     14          6           0       -4.080979   -0.792297   -0.556734
     15          7           0        3.640714    1.140486   -0.302635
     16          6           0        4.506701    0.583230   -1.393501
     17          6           0        2.673321    2.182767   -0.779117
     18          8           0        3.918058   -1.092074    0.998080
     19          1           0        2.268479   -1.678318   -0.950832
     20          1           0       -0.459544    1.115168   -0.440272
     21          1           0       -2.325934    1.745913    0.920831
     22          1           0       -4.602071    2.716335    1.032436
     23          1           0       -6.544505    1.441970    0.152832
     24          1           0       -6.203081   -0.800669   -0.859675
     25          1           0       -3.914008   -1.762611   -1.006696
     26          1           0        5.171218   -0.159990   -0.961384
     27          1           0        5.080581    1.414678   -1.798939
     28          1           0        3.870617    0.149637   -2.162609
     29          1           0        2.060648    2.494880    0.063276
     30          1           0        2.072244    1.767389   -1.584745
     31          1           0        3.264576    3.021234   -1.143027
     32          1           0        4.256693    1.582197    0.404989
     33          1           0        0.157940   -3.043834   -0.089803
 ---------------------------------------------------------------------

 SCF Done:  E(RHF) =  -1206.28419141     A.U. after   17 cycles
 E2 =    -0.2804919303D+01 EUMP2 =    -0.12090891107126D+04

 The electronic state is 1-A.
 Alpha  occ. eigenvalues --  -92.57596 -20.89146 -20.88773 -16.01197 -16.00456
 Alpha  occ. eigenvalues --  -16.00029 -15.98914 -15.96181 -11.66036 -11.60371
 Alpha  occ. eigenvalues --  -11.58073 -11.57400 -11.52922 -11.47874 -11.47261
 Alpha  occ. eigenvalues --  -11.45672 -11.45494 -11.45370  -9.54003  -7.22521
 Alpha  occ. eigenvalues --   -7.22487  -7.22456  -1.80292  -1.79616  -1.67475
 Alpha  occ. eigenvalues --   -1.61072  -1.60464  -1.56141  -1.42026  -1.38710
 Alpha  occ. eigenvalues --   -1.29177  -1.28950  -1.25721  -1.24406  -1.21456
 Alpha  occ. eigenvalues --   -1.19194  -1.16151  -1.11572  -1.07088  -1.06094
 Alpha  occ. eigenvalues --   -1.04968  -1.03609  -1.01152  -1.00641  -0.98366
 Alpha  occ. eigenvalues --   -0.97044  -0.96348  -0.94401  -0.93148  -0.89794
 Alpha  occ. eigenvalues --   -0.89429  -0.87505  -0.86604  -0.85536  -0.85473
 Alpha  occ. eigenvalues --   -0.84757  -0.83341  -0.82549  -0.81479  -0.81049
 Alpha  occ. eigenvalues --   -0.80690  -0.79264  -0.78669  -0.78251  -0.73119
 Alpha  occ. eigenvalues --   -0.71969  -0.71118  -0.67079  -0.55777  -0.55556
 Alpha virt. eigenvalues --   -0.19956  -0.18728  -0.16803  -0.16523  -0.15392
 Alpha virt. eigenvalues --   -0.14955  -0.14015  -0.13558  -0.12871  -0.12283
 Alpha virt. eigenvalues --   -0.12011  -0.11342  -0.10818  -0.10169  -0.09756

 Mulliken charges:
               1
     1  O   -0.974794
     2  S    3.002058
     3  N   -0.982090
     4  C    0.448441
     5  N   -0.335792
     6  N   -0.210594
     7  C    1.250552
     8  N   -0.640813
     9  C    0.946265
    10  C    0.452819
    11  C    0.547204
    12  C    0.625344
    13  C    0.501939
    14  C    0.529602
    15  N   -0.606317
    16  C    0.817803
    17  C    0.836600
    18  O   -0.982751
    19  H   -0.007962
    20  H   -0.497456
    21  H   -0.628069
    22  H   -0.415267
    23  H   -0.402532
    24  H   -0.398852
    25  H   -0.521397
    26  H   -0.075129
    27  H   -0.075334
    28  H   -0.104113
    29  H   -0.104426
    30  H   -0.067270
    31  H   -0.138795
    32  H    0.177781
    33  H    0.033346
 Sum of Mulliken charges =   2.00000

 Dipole moment (field-independent basis, Debye):
    X=              8.1994    Y=              1.7555    Z=             -5.8422  Tot=             10.2197
 Quadrupole moment (field-independent basis, Debye-Ang):
   XX=             11.4931   YY=            -70.4945   ZZ=           -106.8206
   XY=             13.2620   XZ=            -16.4135   YZ=              3.4746

 Normal termination of Gaussian 16 at Thu Sep 24 19:05:03 2020.
