 Gaussian 16, Revision B.01,

 ----------------------------------------------------------------------
 #p b3lyp/6-31G(d) opt freq NoSymm scf=(MaxCycle=2000,NoVarAcc,NoIncFoc
 k) scrf=(iefpcm,read,solvent=water) MaxDisk=20GB
 ----------------------------------------------------------------------

 -------------------
 SM46_m0.n.5.pdb.xyz
 -------------------
 Symbolic Z-matrix:
 Charge =  0 Multiplicity = 1

 SCF Done:  E(RB3LYP) =  -1211.18640964     A.U. after   13 cycles
 SCF Done:  E(RB3LYP) =  -1211.18656191     A.U. after   10 cycles
 SCF Done:  E(RB3LYP) =  -1211.18656665     A.U. after    9 cycles
 SCF Done:  E(RB3LYP) =  -1211.18657614     A.U. after    9 cycles
 SCF Done:  E(RB3LYP) =  -1211.18658593     A.U. after    8 cycles
 SCF Done:  E(RB3LYP) =  -1211.18659616     A.U. after    8 cycles
 SCF Done:  E(RB3LYP) =  -1211.18659769     A.U. after    8 cycles
 SCF Done:  E(RB3LYP) =  -1211.18659882     A.U. after    7 cycles
 SCF Done:  E(RB3LYP) =  -1211.18659852     A.U. after    7 cycles
 SCF Done:  E(RB3LYP) =  -1211.18659763     A.U. after    8 cycles
 SCF Done:  E(RB3LYP) =  -1211.18659833     A.U. after    7 cycles
 SCF Done:  E(RB3LYP) =  -1211.18659888     A.U. after    8 cycles
 SCF Done:  E(RB3LYP) =  -1211.18659825     A.U. after    9 cycles
 SCF Done:  E(RB3LYP) =  -1211.18659843     A.U. after    7 cycles
 SCF Done:  E(RB3LYP) =  -1211.18659888     A.U. after    8 cycles
 SCF Done:  E(RB3LYP) =  -1211.18659795     A.U. after    8 cycles
 Optimization completed.
    -- Stationary point found.
 Normal termination of Gaussian 16 at Mon Sep 14 02:23:19 2020.

 --------------------------------------------------------------------
 #P Geom=AllCheck Guess=TCheck SCRF=Check GenChk RB3LYP/6-31G(d) Freq
 --------------------------------------------------------------------

 Structure from the checkpoint file:  "SM46_m0.n.5.pdb.xyz.mst.n.w.chk"
 -------------------
 SM46_m0.n.5.pdb.xyz
 -------------------
 Charge =  0 Multiplicity = 1

 SCF Done:  E(RB3LYP) =  -1211.18659795     A.U. after    1 cycles

  Exact polarizability: 300.171  -6.413 210.781  20.162 -15.268 126.174
 Approx polarizability: 315.503  -6.231 261.658  30.392 -19.261 148.353

                      1                      2                      3
                      A                      A                      A
 Frequencies --     21.2500                34.1567                43.7304
 Red. masses --      5.2535                 4.2213                 5.7131
 Frc consts  --      0.0014                 0.0029                 0.0064
 IR Inten    --     12.4619                 1.5917                13.1967

                      4                      5                      6
                      A                      A                      A
 Frequencies --     56.2111                70.3373                97.0228
 Red. masses --      3.6734                 4.2225                 5.5144
 Frc consts  --      0.0068                 0.0123                 0.0306
 IR Inten    --      7.0420                 4.4036                 0.3321

                      7                      8                      9
                      A                      A                      A
 Frequencies --    139.5453               160.3609               208.7904
 Red. masses --      5.7846                 2.5868                 1.3595
 Frc consts  --      0.0664                 0.0392                 0.0349
 IR Inten    --      5.5164                28.8402                 1.0138

                     10                     11                     12
                      A                      A                      A
 Frequencies --    218.9845               237.2075               252.2295
 Red. masses --      2.3346                 1.2573                 4.3818
 Frc consts  --      0.0660                 0.0417                 0.1642
 IR Inten    --      5.2776                 6.7122                 1.8950

                     13                     14                     15
                      A                      A                      A
 Frequencies --    268.9705               315.2517               342.4458
 Red. masses --      6.7579                 6.1275                 3.2614
 Frc consts  --      0.2881                 0.3588                 0.2253
 IR Inten    --      0.3624                 4.9518                11.3931

                     16                     17                     18
                      A                      A                      A
 Frequencies --    348.9547               370.0002               391.5082
 Red. masses --      2.8490                 4.0262                 5.6358
 Frc consts  --      0.2044                 0.3248                 0.5090
 IR Inten    --     18.2459                31.1629                 6.1031

                     19                     20                     21
                      A                      A                      A
 Frequencies --    418.7017               449.9725               469.8702
 Red. masses --      3.0504                 6.5967                 3.3674
 Frc consts  --      0.3151                 0.7870                 0.4380
 IR Inten    --      0.0319                25.9178                32.1907

                     22                     23                     24
                      A                      A                      A
 Frequencies --    481.6464               503.9453               540.3241
 Red. masses --      3.9262                 4.8574                 3.9761
 Frc consts  --      0.5366                 0.7268                 0.6839
 IR Inten    --     29.1910                99.1840                 2.2469

                     25                     26                     27
                      A                      A                      A
 Frequencies --    563.4660               627.8559               665.5601
 Red. masses --      7.2667                 6.3321                 3.2918
 Frc consts  --      1.3593                 1.4707                 0.8591
 IR Inten    --    145.9512                 0.2445                24.5527

                     28                     29                     30
                      A                      A                      A
 Frequencies --    677.7890               696.8685               705.8048
 Red. masses --      7.4936                 5.3390                 2.5807
 Frc consts  --      2.0283                 1.5276                 0.7574
 IR Inten    --    229.9781                21.3751                50.0996

                     31                     32                     33
                      A                      A                      A
 Frequencies --    710.3866               778.4969               790.3006
 Red. masses --      7.7174                 1.5885                 1.6267
 Frc consts  --      2.2946                 0.5672                 0.5986
 IR Inten    --     45.5131                80.2738                26.3138

                     34                     35                     36
                      A                      A                      A
 Frequencies --    816.3344               856.5784               876.4774
 Red. masses --      3.9142                 1.2492                 4.2979
 Frc consts  --      1.5368                 0.5400                 1.9453
 IR Inten    --      5.3591                 0.9405               102.5275

                     37                     38                     39
                      A                      A                      A
 Frequencies --    928.6148               938.1523               984.1934
 Red. masses --      3.3343                 1.3845                 1.3423
 Frc consts  --      1.6941                 0.7179                 0.7660
 IR Inten    --    170.1840                 6.7972                 0.2551

                     40                     41                     42
                      A                      A                      A
 Frequencies --   1006.5709              1011.7668              1020.5871
 Red. masses --      7.6804                 1.2668                 6.0409
 Frc consts  --      4.5848                 0.7640                 3.7073
 IR Inten    --     28.6206                 0.4263                 1.2182

                     43                     44                     45
                      A                      A                      A
 Frequencies --   1049.8289              1061.5815              1063.4416
 Red. masses --      2.7604                 1.6334                 2.2530
 Frc consts  --      1.7925                 1.0845                 1.5012
 IR Inten    --      0.5926                38.7646               114.6448

                     46                     47                     48
                      A                      A                      A
 Frequencies --   1067.4632              1107.8997              1114.2086
 Red. masses --      4.3331                 1.5577                11.1501
 Frc consts  --      2.9091                 1.1265                 8.1557
 IR Inten    --     19.1793                22.4742               314.6594

                     49                     50                     51
                      A                      A                      A
 Frequencies --   1127.7991              1174.3049              1188.0534
 Red. masses --      1.2537                 1.3875                 1.1141
 Frc consts  --      0.9396                 1.1273                 0.9265
 IR Inten    --      4.5460                 5.3881                 0.1358

                     52                     53                     54
                      A                      A                      A
 Frequencies --   1197.6271              1210.7356              1226.2112
 Red. masses --      1.1867                 3.3976                 4.0207
 Frc consts  --      1.0029                 2.9344                 3.5619
 IR Inten    --      0.3254                71.1120                 5.5252

                     55                     56                     57
                      A                      A                      A
 Frequencies --   1247.0724              1269.1207              1286.4776
 Red. masses --      1.9581                 1.9101                 6.0953
 Frc consts  --      1.7942                 1.8127                 5.9436
 IR Inten    --      6.8168                37.4774               314.2338

                     58                     59                     60
                      A                      A                      A
 Frequencies --   1296.8396              1330.6153              1364.5863
 Red. masses --     12.1093                 3.0359                 1.7521
 Frc consts  --     11.9989                 3.1669                 1.9223
 IR Inten    --    138.2356                54.9064                 3.3083

                     61                     62                     63
                      A                      A                      A
 Frequencies --   1367.4912              1448.9616              1451.4538
 Red. masses --      4.5059                 2.4365                 1.1405
 Frc consts  --      4.9645                 3.0139                 1.4156
 IR Inten    --      0.9545               236.2235                 1.9757

                     64                     65                     66
                      A                      A                      A
 Frequencies --   1470.5722              1481.2890              1504.2889
 Red. masses --      1.1828                 2.3653                 1.0480
 Frc consts  --      1.5070                 3.0578                 1.3972
 IR Inten    --      7.6265                19.4965                10.5522

                     67                     68                     69
                      A                      A                      A
 Frequencies --   1514.1781              1514.5428              1518.0630
 Red. masses --      1.0869                 2.3471                 1.0610
 Frc consts  --      1.4682                 3.1721                 1.4406
 IR Inten    --      5.9352                36.7398                18.5038

                     70                     71                     72
                      A                      A                      A
 Frequencies --   1528.5956              1549.1689              1608.3820
 Red. masses --      1.0474                 2.7571                 6.5900
 Frc consts  --      1.4419                 3.8985                10.0442
 IR Inten    --     20.9450               110.4153                94.3394

                     73                     74                     75
                      A                      A                      A
 Frequencies --   1655.4832              1658.4439              3054.7036
 Red. masses --      6.4546                 5.7482                 1.0452
 Frc consts  --     10.4224                 9.3150                 5.7463
 IR Inten    --     10.3633                25.6121                59.1007

                     76                     77                     78
                      A                      A                      A
 Frequencies --   3059.4550              3144.0873              3146.3112
 Red. masses --      1.0423                 1.0925                 1.0956
 Frc consts  --      5.7479                 6.3629                 6.3900
 IR Inten    --     71.0907                46.5402                 6.1179

                     79                     80                     81
                      A                      A                      A
 Frequencies --   3180.8919              3203.2180              3213.7862
 Red. masses --      1.1059                 1.1022                 1.0863
 Frc consts  --      6.5927                 6.6630                 6.6107
 IR Inten    --      4.8883                 7.6899                 0.3370

                     82                     83                     84
                      A                      A                      A
 Frequencies --   3222.1751              3231.5536              3240.4026
 Red. masses --      1.0899                 1.0938                 1.0958
 Frc consts  --      6.6671                 6.7300                 6.7790
 IR Inten    --     17.3475                40.7704                12.1134

                     85                     86                     87
                      A                      A                      A
 Frequencies --   3257.4918              3347.5126              3516.6497
 Red. masses --      1.0930                 1.1007                 1.0758
 Frc consts  --      6.8336                 7.2670                 7.8389
 IR Inten    --      2.3293                 9.3838               181.4982

 - Thermochemistry -
 -------------------
 Temperature   298.150 Kelvin.  Pressure   1.00000 Atm.
 Atom     1 has atomic number  8 and mass  15.99491

 Molecular mass:   267.07900 amu.
 Principal axes and moments of inertia in atomic units:
                           1         2         3
     Eigenvalues --  1588.63662********************
           X            0.99991  -0.01058  -0.00779
           Y            0.01101   0.99829   0.05747
           Z            0.00717  -0.05755   0.99832
 This molecule is an asymmetric top.
 Rotational symmetry number  1.
 Warning -- assumption of classical behavior for rotation
           may cause significant error
 Rotational temperatures (Kelvin)      0.05452     0.00796     0.00761
 Rotational constants (GHZ):           1.13603     0.16579     0.15851
 Zero-point vibrational energy     631450.3 (Joules/Mol)
                                  150.92024 (Kcal/Mol)
 Warning -- explicit consideration of  25 degrees of freedom as
           vibrations may cause significant error
 Vibrational temperatures:     30.57    49.14    62.92    80.88   101.20
          (Kelvin)            139.59   200.77   230.72   300.40   315.07
                              341.29   362.90   386.99   453.58   492.70
                              502.07   532.35   563.29   602.42   647.41
                              676.04   692.98   725.06   777.41   810.70
                              903.34   957.59   975.19  1002.64  1015.50
                             1022.09  1120.08  1137.07  1174.52  1232.43
                             1261.06  1336.07  1349.79  1416.03  1448.23
                             1455.71  1468.40  1510.47  1527.38  1530.06
                             1535.84  1594.02  1603.10  1622.65  1689.56
                             1709.34  1723.12  1741.98  1764.24  1794.26
                             1825.98  1850.95  1865.86  1914.46  1963.34
                             1967.51  2084.73  2088.32  2115.83  2131.24
                             2164.34  2178.56  2179.09  2184.15  2199.31
                             2228.91  2314.10  2381.87  2386.13  4395.04
                             4401.87  4523.64  4526.84  4576.59  4608.72
                             4623.92  4635.99  4649.48  4662.22  4686.80
                             4816.32  5059.67

 Zero-point correction=                           0.240507 (Hartree/Particle)
 Thermal correction to Energy=                    0.257287
 Thermal correction to Enthalpy=                  0.258231
 Thermal correction to Gibbs Free Energy=         0.193888
 Sum of electronic and zero-point Energies=          -1210.946091
 Sum of electronic and thermal Energies=             -1210.929311
 Sum of electronic and thermal Enthalpies=           -1210.928367
 Sum of electronic and thermal Free Energies=        -1210.992710

                     E (Thermal)             CV                S
                      KCal/Mol        Cal/Mol-Kelvin    Cal/Mol-Kelvin
 Total                  161.450             62.941            135.423
 Electronic               0.000              0.000              0.000
 Translational            0.889              2.981             42.646
 Rotational               0.889              2.981             33.642
 Vibrational            159.673             56.980             59.134
 Vibration     1          0.593              1.985              6.514
 Vibration     2          0.594              1.983              5.572
 Vibration     3          0.595              1.980              5.083
 Vibration     4          0.596              1.975              4.586
 Vibration     5          0.598              1.968              4.144
 Vibration     6          0.603              1.951              3.513
 Vibration     7          0.615              1.914              2.810
 Vibration     8          0.622              1.891              2.546
 Vibration     9          0.642              1.827              2.054
 Vibration    10          0.647              1.812              1.967
 Vibration    11          0.656              1.784              1.824
 Vibration    12          0.664              1.759              1.715
 Vibration    13          0.673              1.730              1.603
 Vibration    14          0.703              1.645              1.335
 Vibration    15          0.722              1.591              1.201
 Vibration    16          0.726              1.577              1.171
 Vibration    17          0.742              1.534              1.080
 Vibration    18          0.759              1.488              0.994
 Vibration    19          0.782              1.430              0.896
 Vibration    20          0.809              1.361              0.796
 Vibration    21          0.827              1.317              0.738
 Vibration    22          0.838              1.291              0.706
 Vibration    23          0.859              1.241              0.648
 Vibration    24          0.895              1.161              0.565
 Vibration    25          0.919              1.110              0.517

 Optimization completed.
    -- Stationary point found.
 Normal termination of Gaussian 16 at Mon Sep 14 02:31:53 2020.

 ----------------------------------------------------------------------
 #p b3lyp/6-31G(d) scrf=(iefpcm,read,solvent=water) geom=allcheck guess
 =read
 ----------------------------------------------------------------------

 Structure from the checkpoint file:  "SM46_m0.n.5.pdb.xyz.mst.n.w.chk"
 -------------------
 SM46_m0.n.5.pdb.xyz
 -------------------
 Charge =  0 Multiplicity = 1

 SCF Done:  E(RB3LYP) =  -1211.18658917     A.U. after    6 cycles
 Normal termination of Gaussian 16 at Mon Sep 14 02:32:29 2020.

 -----------------------------
 #p B3LYP/6-31G* geom=allcheck
 -----------------------------

 Structure from the checkpoint file:  "SM46_m0.n.5.pdb.xyz.mst.n.w.chk"
 -------------------
 SM46_m0.n.5.pdb.xyz
 -------------------
 Charge =  0 Multiplicity = 1

 SCF Done:  E(RB3LYP) =  -1211.16547298     A.U. after   15 cycles
 Normal termination of Gaussian 16 at Mon Sep 14 02:33:08 2020.
 Gaussian 16:  ES64L-G16RevB.01 20-Dec-2017

 ----------------------------------------------------------------------
 #p mp2/aug-cc-pVDZ scf=(MaxCycle=2000,NoVarAcc,NoIncFock) maxdisk=180G
 B geom=allcheck
 ----------------------------------------------------------------------

 Structure from the checkpoint file:  "SM46_m0.n.5.pdb.xyz.mst.n.w.chk"
 -------------------
 SM46_m0.n.5.pdb.xyz
 -------------------
 Charge =  0 Multiplicity = 1

                         Standard orientation:
 ---------------------------------------------------------------------
 Center     Atomic      Atomic             Coordinates (Angstroms)
 Number     Number       Type             X           Y           Z
 ---------------------------------------------------------------------
      1          8           0       -3.775156   -1.265335   -1.222533
      2         16           0       -2.811630   -0.646728   -0.311159
      3          7           0       -1.737826    0.247447   -1.254063
      4          6           0       -0.422989    0.511932   -0.836759
      5          7           0        0.000703    1.768659   -0.527792
      6          7           0        1.272850    1.722526   -0.226751
      7          6           0        0.638065   -0.358776   -0.715971
      8          7           0        1.668651    0.431319   -0.323618
      9          6           0        3.014709    0.058345   -0.036419
     10          6           0        3.298190   -1.249671    0.361387
     11          6           0        4.618451   -1.606531    0.630584
     12          6           0        5.642089   -0.663734    0.516936
     13          6           0        5.341586    0.643212    0.125771
     14          6           0        4.028639    1.010601   -0.159478
     15          7           0       -3.665336    0.528819    0.542552
     16          6           0       -4.983741    0.081598    1.032963
     17          6           0       -2.868159    1.226168    1.565093
     18          8           0       -1.985738   -1.505238    0.547609
     19          1           0       -2.202718    1.026722   -1.722177
     20          1           0        0.732016   -1.416412   -0.885840
     21          1           0        2.499548   -1.973680    0.470864
     22          1           0        4.841753   -2.621848    0.938898
     23          1           0        6.666939   -0.945451    0.731806
     24          1           0        6.131485    1.380210    0.031632
     25          1           0        3.783609    2.015414   -0.476721
     26          1           0       -5.531448   -0.389735    0.219467
     27          1           0       -5.521149    0.973992    1.358360
     28          1           0       -4.902776   -0.612372    1.878140
     29          1           0       -1.953276    1.619338    1.121698
     30          1           0       -2.618563    0.579514    2.413962
     31          1           0       -3.466520    2.066287    1.920917
 ---------------------------------------------------------------------

 SCF Done:  E(RHF) =  -1205.69937476     A.U. after   17 cycles
 E2 =    -0.2809628431D+01 EUMP2 =    -0.12085090031946D+04

 The electronic state is 1-A.
 Alpha  occ. eigenvalues --  -92.24717 -20.56619 -20.56072 -15.69045 -15.66256
 Alpha  occ. eigenvalues --  -15.62925 -15.62434 -15.61893 -11.31982 -11.31549
 Alpha  occ. eigenvalues --  -11.30351 -11.27816 -11.27776 -11.26779 -11.26523
 Alpha  occ. eigenvalues --  -11.26405 -11.26222 -11.25988  -9.21195  -6.89741
 Alpha  occ. eigenvalues --   -6.89703  -6.89657  -1.47339  -1.45937  -1.34394
 Alpha  occ. eigenvalues --   -1.27744  -1.25484  -1.23517  -1.16651  -1.09049
 Alpha  occ. eigenvalues --   -1.04358  -1.03930  -0.98269  -0.95426  -0.90624
 Alpha  occ. eigenvalues --   -0.87727  -0.84149  -0.82237  -0.81143  -0.77020
 Alpha  occ. eigenvalues --   -0.73760  -0.71191  -0.70219  -0.68763  -0.66988
 Alpha  occ. eigenvalues --   -0.66818  -0.65805  -0.63859  -0.63635  -0.61994
 Alpha  occ. eigenvalues --   -0.61364  -0.61179  -0.58741  -0.57034  -0.54632
 Alpha  occ. eigenvalues --   -0.54288  -0.53614  -0.53415  -0.51961  -0.51635
 Alpha  occ. eigenvalues --   -0.50683  -0.49954  -0.48578  -0.47236  -0.45341
 Alpha  occ. eigenvalues --   -0.44094  -0.41116  -0.36407  -0.35923  -0.33238
 Alpha virt. eigenvalues --    0.02975   0.03529   0.03853   0.04478   0.04872
 Alpha virt. eigenvalues --    0.05256   0.05845   0.05854   0.06378   0.07173
 Alpha virt. eigenvalues --    0.07626   0.07737   0.08445   0.08971   0.09532

 Mulliken charges:
               1
     1  O   -1.108650
     2  S    3.097707
     3  N   -0.945501
     4  C    0.993073
     5  N   -0.606901
     6  N   -0.462746
     7  C    0.933920
     8  N   -0.665513
     9  C    0.941636
    10  C    0.136858
    11  C    0.698737
    12  C    0.627205
    13  C    0.565532
    14  C    0.390286
    15  N   -1.252221
    16  C    0.721012
    17  C    0.870132
    18  O   -1.161448
    19  H   -0.028951
    20  H   -0.473731
    21  H   -0.648806
    22  H   -0.442875
    23  H   -0.444221
    24  H   -0.434013
    25  H   -0.544152
    26  H   -0.105250
    27  H   -0.147416
    28  H   -0.030506
    29  H   -0.317666
    30  H   -0.021752
    31  H   -0.133779
 Sum of Mulliken charges =  -0.00000

 Dipole moment (field-independent basis, Debye):
    X=              2.4197    Y=              0.9787    Z=              1.6937  Tot=              3.1115
 Quadrupole moment (field-independent basis, Debye-Ang):
   XX=            -91.9647   YY=           -118.5000   ZZ=           -115.6309
   XY=            -15.5298   XZ=             -8.8107   YZ=             -2.1245

 Normal termination of Gaussian 16 at Mon Sep 14 03:18:25 2020.
