 Gaussian 16, Revision B.01,

 ----------------------------------------------------------------------
 #p b3lyp/6-31G(d) opt freq NoSymm scf=(MaxCycle=2000,NoVarAcc,NoIncFoc
 k) scrf=(iefpcm,read,solvent=water)
 ----------------------------------------------------------------------

 --------------------
 SM46_m3.b.10.pdb.xyz
 --------------------
 Symbolic Z-matrix:
 Charge =  2 Multiplicity = 1

 SCF Done:  E(RB3LYP) =  -1212.06262377     A.U. after   13 cycles
 SCF Done:  E(RB3LYP) =  -1212.06246711     A.U. after   10 cycles
 SCF Done:  E(RB3LYP) =  -1212.06243186     A.U. after    9 cycles
 SCF Done:  E(RB3LYP) =  -1212.06261573     A.U. after   10 cycles
 SCF Done:  E(RB3LYP) =  -1212.06262386     A.U. after    9 cycles
 SCF Done:  E(RB3LYP) =  -1212.06247130     A.U. after   10 cycles
 SCF Done:  E(RB3LYP) =  -1212.06246122     A.U. after    8 cycles
 SCF Done:  E(RB3LYP) =  -1212.06261779     A.U. after   10 cycles
 SCF Done:  E(RB3LYP) =  -1212.06262378     A.U. after    8 cycles
 SCF Done:  E(RB3LYP) =  -1212.06245508     A.U. after   10 cycles
 SCF Done:  E(RB3LYP) =  -1212.06243854     A.U. after    8 cycles
 SCF Done:  E(RB3LYP) =  -1212.06243686     A.U. after    7 cycles
 SCF Done:  E(RB3LYP) =  -1212.06243641     A.U. after    7 cycles
 SCF Done:  E(RB3LYP) =  -1212.06243188     A.U. after    8 cycles
 SCF Done:  E(RB3LYP) =  -1212.06243638     A.U. after    8 cycles
 SCF Done:  E(RB3LYP) =  -1212.06243641     A.U. after    6 cycles
 Optimization completed.
    -- Stationary point found.
 Normal termination of Gaussian 16 at Thu Sep 24 18:22:35 2020.

 --------------------------------------------------------------------
 #P Geom=AllCheck Guess=TCheck SCRF=Check GenChk RB3LYP/6-31G(d) Freq
 --------------------------------------------------------------------

 Structure from the checkpoint file:  "SM46_m3.b.10.pdb.xyz.mst.b.w.chk"
 --------------------
 SM46_m3.b.10.pdb.xyz
 --------------------
 Charge =  2 Multiplicity = 1

 SCF Done:  E(RB3LYP) =  -1212.06243641     A.U. after    1 cycles

  Exact polarizability: 294.049  11.413 205.561 -21.850  12.606 125.343
 Approx polarizability: 307.747   2.862 255.794 -28.997  15.825 149.835

                      1                      2                      3
                      A                      A                      A
 Frequencies --     16.8019                26.2550                62.8455
 Red. masses --      4.0245                 5.5849                 5.2958
 Frc consts  --      0.0007                 0.0023                 0.0123
 IR Inten    --      3.0145                 0.0647                 4.2299

                      4                      5                      6
                      A                      A                      A
 Frequencies --     81.8249                96.7591               111.7229
 Red. masses --      5.6763                 3.0544                 4.2073
 Frc consts  --      0.0224                 0.0168                 0.0309
 IR Inten    --      3.3501                 0.7435                 5.3652

                      7                      8                      9
                      A                      A                      A
 Frequencies --    116.5566               160.1976               180.1617
 Red. masses --      4.6676                 1.3881                 2.4922
 Frc consts  --      0.0374                 0.0210                 0.0477
 IR Inten    --      2.2307                 1.9895                 1.7336

                     10                     11                     12
                      A                      A                      A
 Frequencies --    210.4186               250.7311               260.4977
 Red. masses --      4.5368                 3.8676                 1.7886
 Frc consts  --      0.1183                 0.1433                 0.0715
 IR Inten    --      1.7379                 2.5187                 2.9559

                     13                     14                     15
                      A                      A                      A
 Frequencies --    262.7918               295.8320               307.9580
 Red. masses --      2.1707                 4.3407                 4.3628
 Frc consts  --      0.0883                 0.2238                 0.2438
 IR Inten    --      9.9370                27.6687                10.8411

                     16                     17                     18
                      A                      A                      A
 Frequencies --    344.4942               377.9632               396.0683
 Red. masses --      3.6437                 2.1558                 5.4869
 Frc consts  --      0.2548                 0.1814                 0.5071
 IR Inten    --      5.7968                78.5534                28.9835

                     19                     20                     21
                      A                      A                      A
 Frequencies --    407.1264               415.3530               427.5526
 Red. masses --      2.4147                 2.9432                 3.9134
 Frc consts  --      0.2358                 0.2992                 0.4215
 IR Inten    --     45.2766                 0.2576                28.3456

                     22                     23                     24
                      A                      A                      A
 Frequencies --    472.9417               502.0437               542.0869
 Red. masses --      4.5901                 5.1875                 3.8464
 Frc consts  --      0.6049                 0.7704                 0.6660
 IR Inten    --     15.7028                65.8615                 7.9502

                     25                     26                     27
                      A                      A                      A
 Frequencies --    564.8240               600.1160               626.6249
 Red. masses --      6.3337                 5.3975                 6.4278
 Frc consts  --      1.1905                 1.1453                 1.4871
 IR Inten    --     75.2845               223.2852                 0.5065

                     28                     29                     30
                      A                      A                      A
 Frequencies --    657.2337               694.0925               704.9116
 Red. masses --      4.0006                 2.2500                 4.7121
 Frc consts  --      1.0182                 0.6387                 1.3796
 IR Inten    --     47.7242                18.9142                25.9615

                     31                     32                     33
                      A                      A                      A
 Frequencies --    710.5663               779.6425               783.9157
 Red. masses --      7.8795                 1.6431                 1.1723
 Frc consts  --      2.3440                 0.5885                 0.4245
 IR Inten    --     35.2532                64.5634               158.8138

                     34                     35                     36
                      A                      A                      A
 Frequencies --    795.8075               844.7302               864.1900
 Red. masses --      2.5657                 1.3352                 1.8786
 Frc consts  --      0.9573                 0.5614                 0.8266
 IR Inten    --     21.7660                 3.2627                16.6460

                     37                     38                     39
                      A                      A                      A
 Frequencies --    866.3606               887.9172               940.6295
 Red. masses --      3.4492                 4.8444                 1.3720
 Frc consts  --      1.5253                 2.2503                 0.7152
 IR Inten    --     88.8902               174.2037                 6.2474

                     40                     41                     42
                      A                      A                      A
 Frequencies --    985.5537              1006.2631              1010.2470
 Red. masses --      1.3532                 8.2089                 2.4424
 Frc consts  --      0.7744                 4.8973                 1.4687
 IR Inten    --      0.4700                19.3983                31.9105

                     43                     44                     45
                      A                      A                      A
 Frequencies --   1018.3485              1023.0325              1050.6212
 Red. masses --      1.2949                 6.3013                 2.1370
 Frc consts  --      0.7912                 3.8856                 1.3898
 IR Inten    --      0.1534                 1.5718                 4.8430

                     46                     47                     48
                      A                      A                      A
 Frequencies --   1073.5102              1081.3236              1109.4465
 Red. masses --      1.1954                 2.5986                 1.9710
 Frc consts  --      0.8117                 1.7902                 1.4294
 IR Inten    --      6.4112                87.6490                26.9937

                     49                     50                     51
                      A                      A                      A
 Frequencies --   1111.0961              1145.7016              1155.5434
 Red. masses --      2.0115                 3.8789                 1.8170
 Frc consts  --      1.4631                 2.9999                 1.4295
 IR Inten    --      0.7212               165.9218                49.8297

                     52                     53                     54
                      A                      A                      A
 Frequencies --   1178.5240              1193.1465              1197.4371
 Red. masses --      1.7897                 1.0955                 1.1650
 Frc consts  --      1.4645                 0.9188                 0.9842
 IR Inten    --     80.3715                 0.1070                 3.2579

                     55                     56                     57
                      A                      A                      A
 Frequencies --   1233.1800              1240.3391              1241.9226
 Red. masses --      1.6866                 2.9402                 1.8000
 Frc consts  --      1.5112                 2.6651                 1.6357
 IR Inten    --     11.7102                 8.3246                 1.8940

                     58                     59                     60
                      A                      A                      A
 Frequencies --   1334.2939              1354.7548              1366.8485
 Red. masses --      2.3712                 2.7157                 2.0174
 Frc consts  --      2.4873                 2.9366                 2.2206
 IR Inten    --     22.7323                65.5207                21.6538

                     61                     62                     63
                      A                      A                      A
 Frequencies --   1367.1674              1399.7327              1409.9596
 Red. masses --      5.6822                 1.9219                 4.5993
 Frc consts  --      6.2577                 2.2185                 5.3871
 IR Inten    --     63.0404               159.0472                14.5259

                     64                     65                     66
                      A                      A                      A
 Frequencies --   1441.6958              1447.1692              1453.2327
 Red. masses --      1.4469                 1.1807                 1.1940
 Frc consts  --      1.7719                 1.4569                 1.4857
 IR Inten    --    129.3497                11.5367                 3.5627

                     67                     68                     69
                      A                      A                      A
 Frequencies --   1466.6638              1470.5606              1492.6859
 Red. masses --      2.9551                 1.2074                 2.3876
 Frc consts  --      3.7453                 1.5384                 3.1344
 IR Inten    --     14.1160                34.2916                 4.0774

                     70                     71                     72
                      A                      A                      A
 Frequencies --   1501.6917              1507.9193              1510.7255
 Red. masses --      1.0513                 1.0421                 1.0472
 Frc consts  --      1.3968                 1.3961                 1.4081
 IR Inten    --     26.6024                30.3856                33.9091

                     73                     74                     75
                      A                      A                      A
 Frequencies --   1514.2088              1531.4350              1538.6844
 Red. masses --      2.5211                 1.0478                 2.4348
 Frc consts  --      3.4058                 1.4479                 3.3963
 IR Inten    --     23.6854                45.9226                27.1262

                     76                     77                     78
                      A                      A                      A
 Frequencies --   1646.3985              1653.3088              1665.3743
 Red. masses --      5.3661                 5.7005                 5.7531
 Frc consts  --      8.5699                 9.1807                 9.4010
 IR Inten    --    126.6811                17.3630               101.4407

                     79                     80                     81
                      A                      A                      A
 Frequencies --   3129.9067              3133.7191              3222.4878
 Red. masses --      1.0292                 1.0300                 1.0869
 Frc consts  --      5.9406                 5.9592                 6.6503
 IR Inten    --      2.9603                 3.7274                 0.6045

                     82                     83                     84
                      A                      A                      A
 Frequencies --   3227.2127              3229.6394              3232.2527
 Red. masses --      1.1090                 1.1089                 1.0895
 Frc consts  --      6.8049                 6.8149                 6.7065
 IR Inten    --      0.8828                 1.3975                 9.3002

                     85                     86                     87
                      A                      A                      A
 Frequencies --   3238.4252              3241.4212              3244.3363
 Red. masses --      1.0931                 1.1104                 1.1102
 Frc consts  --      6.7545                 6.8740                 6.8848
 IR Inten    --     24.4699                 2.5586                 1.1767

                     88                     89                     90
                      A                      A                      A
 Frequencies --   3246.3011              3254.1017              3353.7897
 Red. masses --      1.0967                 1.0948                 1.1032
 Frc consts  --      6.8092                 6.8302                 7.3107
 IR Inten    --     11.8481                 1.5373                34.0269

                     91                     92                     93
                      A                      A                      A
 Frequencies --   3357.2166              3486.9848              3507.7872
 Red. masses --      1.0784                 1.0776                 1.0878
 Frc consts  --      7.1613                 7.7201                 7.8860
 IR Inten    --    257.4668               383.0877               595.6965

 - Thermochemistry -
 -------------------
 Temperature   298.150 Kelvin.  Pressure   1.00000 Atm.
 Atom     1 has atomic number  8 and mass  15.99491

 Molecular mass:   269.09465 amu.
 Principal axes and moments of inertia in atomic units:
                           1         2         3
     Eigenvalues --  1453.02883********************
           X            0.99896  -0.03602  -0.02799
           Y            0.03805   0.99639   0.07585
           Z            0.02515  -0.07684   0.99673
 This molecule is an asymmetric top.
 Rotational symmetry number  1.
 Warning -- assumption of classical behavior for rotation
           may cause significant error
 Rotational temperatures (Kelvin)      0.05961     0.00728     0.00708
 Rotational constants (GHZ):           1.24205     0.15175     0.14758
 Zero-point vibrational energy     705102.2 (Joules/Mol)
                                  168.52346 (Kcal/Mol)
 Warning -- explicit consideration of  26 degrees of freedom as
           vibrations may cause significant error
 Vibrational temperatures:     24.17    37.78    90.42   117.73   139.21
          (Kelvin)            160.74   167.70   230.49   259.21   302.75
                              360.75   374.80   378.10   425.64   443.08
                              495.65   543.80   569.85   585.76   597.60
                              615.15   680.46   722.33   779.94   812.66
                              863.43   901.57   945.61   998.64  1014.21
                             1022.35  1121.73  1127.88  1144.99  1215.38
                             1243.38  1246.50  1277.51  1353.36  1417.99
                             1447.79  1453.52  1465.18  1471.92  1511.61
                             1544.54  1555.78  1596.25  1598.62  1648.41
                             1662.57  1695.63  1716.67  1722.84  1774.27
                             1784.57  1786.85  1919.75  1949.19  1966.59
                             1967.05  2013.90  2028.62  2074.28  2082.15
                             2090.88  2110.20  2115.81  2147.64  2160.60
                             2169.56  2173.60  2178.61  2203.39  2213.82
                             2368.80  2378.74  2396.10  4503.24  4508.72
                             4636.44  4643.24  4646.73  4650.49  4659.37
                             4663.68  4667.88  4670.70  4681.93  4825.36
                             4830.29  5016.99  5046.92

 Zero-point correction=                           0.268559 (Hartree/Particle)
 Thermal correction to Energy=                    0.285557
 Thermal correction to Enthalpy=                  0.286501
 Thermal correction to Gibbs Free Energy=         0.222039
 Sum of electronic and zero-point Energies=          -1211.793877
 Sum of electronic and thermal Energies=             -1211.776880
 Sum of electronic and thermal Enthalpies=           -1211.775935
 Sum of electronic and thermal Free Energies=        -1211.840397

                     E (Thermal)             CV                S
                      KCal/Mol        Cal/Mol-Kelvin    Cal/Mol-Kelvin
 Total                  179.190             64.352            135.672
 Electronic               0.000              0.000              0.000
 Translational            0.889              2.981             42.669
 Rotational               0.889              2.981             33.713
 Vibrational            177.412             58.390             59.290
 Vibration     1          0.593              1.986              6.980
 Vibration     2          0.593              1.985              6.094
 Vibration     3          0.597              1.972              4.366
 Vibration     4          0.600              1.962              3.847
 Vibration     5          0.603              1.951              3.519
 Vibration     6          0.607              1.940              3.239
 Vibration     7          0.608              1.936              3.157
 Vibration     8          0.622              1.891              2.547
 Vibration     9          0.629              1.867              2.327
 Vibration    10          0.643              1.825              2.040
 Vibration    11          0.663              1.762              1.725
 Vibration    12          0.669              1.745              1.658
 Vibration    13          0.670              1.741              1.643
 Vibration    14          0.690              1.682              1.440
 Vibration    15          0.698              1.659              1.373
 Vibration    16          0.723              1.586              1.191
 Vibration    17          0.748              1.517              1.047
 Vibration    18          0.763              1.479              0.977
 Vibration    19          0.772              1.455              0.937
 Vibration    20          0.779              1.437              0.908
 Vibration    21          0.789              1.410              0.867
 Vibration    22          0.830              1.310              0.729
 Vibration    23          0.857              1.245              0.653
 Vibration    24          0.897              1.157              0.561
 Vibration    25          0.921              1.107              0.514
 Vibration    26          0.958              1.032              0.449

                           ! Non-Optimized Parameters !
 Normal termination of Gaussian 16 at Thu Sep 24 18:31:47 2020.

 ----------------------------------------------------------------------
 #p b3lyp/6-31G(d) scrf=(iefpcm,read,solvent=water) geom=allcheck guess
 =read
 ----------------------------------------------------------------------

 Structure from the checkpoint file:  "SM46_m3.b.10.pdb.xyz.mst.b.w.chk"
 --------------------
 SM46_m3.b.10.pdb.xyz
 --------------------
 Charge =  2 Multiplicity = 1

 SCF Done:  E(RB3LYP) =  -1212.06228098     A.U. after    7 cycles
 Normal termination of Gaussian 16 at Thu Sep 24 18:32:23 2020.

 -----------------------------
 #p B3LYP/6-31G* geom=allcheck
 -----------------------------

 Structure from the checkpoint file:  "SM46_m3.b.10.pdb.xyz.mst.b.w.chk"
 --------------------
 SM46_m3.b.10.pdb.xyz
 --------------------
 Charge =  2 Multiplicity = 1

 SCF Done:  E(RB3LYP) =  -1211.75747871     A.U. after   16 cycles
 Normal termination of Gaussian 16 at Thu Sep 24 18:33:08 2020.
 Gaussian 16:  ES64L-G16RevB.01 20-Dec-2017

 ----------------------------------------------------------------------
 #p mp2/aug-cc-pVDZ scf=(MaxCycle=2000,NoVarAcc,NoIncFock) maxdisk=120G
 B geom=allcheck
 ----------------------------------------------------------------------

 Structure from the checkpoint file:  "SM46_m3.b.10.pdb.xyz.mst.b.w.chk"
 --------------------
 SM46_m3.b.10.pdb.xyz
 --------------------
 Charge =  2 Multiplicity = 1

                         Standard orientation:
 ---------------------------------------------------------------------
 Center     Atomic      Atomic             Coordinates (Angstroms)
 Number     Number       Type             X           Y           Z
 ---------------------------------------------------------------------
      1          8           0       -2.076707    0.177486    1.681842
      2         16           0       -2.703004    0.656307    0.467282
      3          7           0       -1.612769    0.705750   -0.779976
      4          6           0       -0.319768    0.205736   -0.638618
      5          7           0        0.006986   -1.094081   -0.871529
      6          7           0        1.279651   -1.337126   -0.704535
      7          6           0        0.864618    0.817508   -0.299439
      8          7           0        1.800138   -0.166714   -0.361599
      9          6           0        3.206788   -0.069958   -0.089408
     10          6           0        3.871147    1.123476   -0.368631
     11          6           0        5.235340    1.203806   -0.095289
     12          6           0        5.913856    0.104874    0.434970
     13          6           0        5.228130   -1.082807    0.700597
     14          6           0        3.862563   -1.178435    0.445091
     15          7           0       -3.758432   -0.766665   -0.077057
     16          6           0       -4.718552   -1.136609    1.016490
     17          6           0       -4.429982   -0.479095   -1.383112
     18          8           0       -3.579614    1.805299    0.381443
     19          1           0       -1.752189    1.497031   -1.414991
     20          1           0        1.079924    1.830927   -0.009267
     21          1           0        3.347236    1.964953   -0.805323
     22          1           0        5.765908    2.124276   -0.308570
     23          1           0        6.975878    0.173754    0.641299
     24          1           0        5.752069   -1.935309    1.116829
     25          1           0        3.311639   -2.084783    0.661249
     26          1           0       -4.150012   -1.343957    1.919113
     27          1           0       -5.247164   -2.028845    0.687022
     28          1           0       -5.416164   -0.315530    1.168395
     29          1           0       -3.666558   -0.234163   -2.117435
     30          1           0       -5.126585    0.344568   -1.249456
     31          1           0       -4.956789   -1.384132   -1.679665
     32          1           0       -3.096975   -1.552726   -0.211377
     33          1           0       -0.615446   -1.858377   -1.153645
 ---------------------------------------------------------------------

 SCF Done:  E(RHF) =  -1206.28331248     A.U. after   17 cycles
 E2 =    -0.2803293271D+01 EUMP2 =    -0.12090866057472D+04

 The electronic state is 1-A.
 Alpha  occ. eigenvalues --  -92.57258 -20.88831 -20.88512 -16.01162 -16.00895
 Alpha  occ. eigenvalues --  -16.00804 -15.99507 -15.95719 -11.65848 -11.60723
 Alpha  occ. eigenvalues --  -11.57454 -11.56513 -11.52934 -11.47783 -11.47288
 Alpha  occ. eigenvalues --  -11.45549 -11.45438 -11.45330  -9.53673  -7.22187
 Alpha  occ. eigenvalues --   -7.22158  -7.22126  -1.80659  -1.79488  -1.67114
 Alpha  occ. eigenvalues --   -1.61085  -1.60329  -1.56609  -1.42280  -1.38759
 Alpha  occ. eigenvalues --   -1.29152  -1.28667  -1.25796  -1.24387  -1.20656
 Alpha  occ. eigenvalues --   -1.18925  -1.17053  -1.10474  -1.08492  -1.06252
 Alpha  occ. eigenvalues --   -1.05590  -1.02785  -1.01368  -1.01162  -0.98487
 Alpha  occ. eigenvalues --   -0.97150  -0.95057  -0.94796  -0.93135  -0.89817
 Alpha  occ. eigenvalues --   -0.88961  -0.86641  -0.85502  -0.85479  -0.84813
 Alpha  occ. eigenvalues --   -0.84134  -0.83764  -0.82358  -0.81056  -0.80940
 Alpha  occ. eigenvalues --   -0.80202  -0.79133  -0.78335  -0.78226  -0.73069
 Alpha  occ. eigenvalues --   -0.71922  -0.71121  -0.68308  -0.55734  -0.55488
 Alpha virt. eigenvalues --   -0.20787  -0.20419  -0.17568  -0.16410  -0.15067
 Alpha virt. eigenvalues --   -0.14635  -0.13905  -0.13274  -0.12622  -0.12171
 Alpha virt. eigenvalues --   -0.11701  -0.11383  -0.10903  -0.10511  -0.09830

 Mulliken charges:
               1
     1  O   -1.002544
     2  S    2.939235
     3  N   -0.920008
     4  C    0.827862
     5  N   -0.376890
     6  N   -0.215334
     7  C    1.165194
     8  N   -0.607362
     9  C    0.970941
    10  C    0.158619
    11  C    0.740131
    12  C    0.585668
    13  C    0.576387
    14  C    0.407208
    15  N   -0.828485
    16  C    0.786796
    17  C    0.834463
    18  O   -0.995880
    19  H    0.029639
    20  H   -0.441297
    21  H   -0.643090
    22  H   -0.401302
    23  H   -0.402352
    24  H   -0.396173
    25  H   -0.516713
    26  H   -0.082696
    27  H   -0.082634
    28  H   -0.049436
    29  H   -0.168566
    30  H   -0.010209
    31  H   -0.085260
    32  H    0.178366
    33  H    0.025725
 Sum of Mulliken charges =   2.00000

 Dipole moment (field-independent basis, Debye):
    X=             -8.3978    Y=             -3.7683    Z=             -4.6372  Tot=             10.3066
 Quadrupole moment (field-independent basis, Debye-Ang):
   XX=             31.7448   YY=            -86.2438   ZZ=           -103.0626
   XY=             24.0385   XZ=             12.5949   YZ=             -4.5531

 Normal termination of Gaussian 16 at Thu Sep 24 19:09:18 2020.
