 Gaussian 16, Revision B.01,

 ----------------------------------------------------------------------
 #p b3lyp/6-31G(d) opt freq NoSymm scf=(MaxCycle=2000,NoVarAcc,NoIncFoc
 k) scrf=(iefpcm,read,solvent=water)
 ----------------------------------------------------------------------

 -------------------
 SM46_m3.b.9.pdb.xyz
 -------------------
 Symbolic Z-matrix:
 Charge =  2 Multiplicity = 1

 SCF Done:  E(RB3LYP) =  -1212.06269792     A.U. after   13 cycles
 SCF Done:  E(RB3LYP) =  -1212.06260712     A.U. after   10 cycles
 SCF Done:  E(RB3LYP) =  -1212.06258612     A.U. after    9 cycles
 SCF Done:  E(RB3LYP) =  -1212.06269292     A.U. after   10 cycles
 SCF Done:  E(RB3LYP) =  -1212.06269833     A.U. after    8 cycles
 SCF Done:  E(RB3LYP) =  -1212.06261901     A.U. after   10 cycles
 SCF Done:  E(RB3LYP) =  -1212.06260245     A.U. after    9 cycles
 SCF Done:  E(RB3LYP) =  -1212.06269464     A.U. after   10 cycles
 SCF Done:  E(RB3LYP) =  -1212.06269820     A.U. after    8 cycles
 SCF Done:  E(RB3LYP) =  -1212.06257790     A.U. after   10 cycles
 SCF Done:  E(RB3LYP) =  -1212.06269828     A.U. after    8 cycles
 SCF Done:  E(RB3LYP) =  -1212.06259239     A.U. after   10 cycles
 SCF Done:  E(RB3LYP) =  -1212.06259008     A.U. after    7 cycles
 SCF Done:  E(RB3LYP) =  -1212.06269538     A.U. after   10 cycles
 SCF Done:  E(RB3LYP) =  -1212.06269828     A.U. after    8 cycles
 SCF Done:  E(RB3LYP) =  -1212.06259147     A.U. after   10 cycles
 Optimization completed.
    -- Stationary point found.
 Normal termination of Gaussian 16 at Thu Sep 24 18:05:29 2020.

 --------------------------------------------------------------------
 #P Geom=AllCheck Guess=TCheck SCRF=Check GenChk RB3LYP/6-31G(d) Freq
 --------------------------------------------------------------------

 Structure from the checkpoint file:  "SM46_m3.b.9.pdb.xyz.mst.b.w.chk"
 -------------------
 SM46_m3.b.9.pdb.xyz
 -------------------
 Charge =  2 Multiplicity = 1

 SCF Done:  E(RB3LYP) =  -1212.06259147     A.U. after    1 cycles

  Exact polarizability: 284.780  11.786 217.079   0.970 -19.050 123.322
 Approx polarizability: 308.208  15.001 258.935  -1.935 -23.718 148.149

                      1                      2                      3
                      A                      A                      A
 Frequencies --     32.8476                46.4671                62.1683
 Red. masses --      3.8784                 7.0306                 4.5681
 Frc consts  --      0.0025                 0.0089                 0.0104
 IR Inten    --      0.2094                 8.2845                 5.9405

                      4                      5                      6
                      A                      A                      A
 Frequencies --     78.5860               101.0286               108.8739
 Red. masses --      3.5148                 4.0740                 4.2582
 Frc consts  --      0.0128                 0.0245                 0.0297
 IR Inten    --      0.9928                 4.6741                 0.6253

                      7                      8                      9
                      A                      A                      A
 Frequencies --    131.0696               161.8924               190.7125
 Red. masses --      4.7185                 1.3175                 5.0109
 Frc consts  --      0.0478                 0.0203                 0.1074
 IR Inten    --      2.0065                 1.2993                 3.7232

                     10                     11                     12
                      A                      A                      A
 Frequencies --    226.9201               248.0714               255.4280
 Red. masses --      2.8616                 2.9143                 4.2405
 Frc consts  --      0.0868                 0.1057                 0.1630
 IR Inten    --      1.4511                15.5420                 3.5601

                     13                     14                     15
                      A                      A                      A
 Frequencies --    272.9621               290.2094               314.6792
 Red. masses --      1.4902                 3.2880                 3.7493
 Frc consts  --      0.0654                 0.1632                 0.2187
 IR Inten    --     12.4043                11.8226                43.5122

                     16                     17                     18
                      A                      A                      A
 Frequencies --    350.0108               363.4269               395.0659
 Red. masses --      3.2279                 2.0339                 6.3346
 Frc consts  --      0.2330                 0.1583                 0.5825
 IR Inten    --      8.9959               135.0903                 1.7979

                     19                     20                     21
                      A                      A                      A
 Frequencies --    416.8388               417.5863               447.6003
 Red. masses --      5.2549                 3.0128                 3.2849
 Frc consts  --      0.5380                 0.3095                 0.3878
 IR Inten    --      9.2123                 0.3449                25.7708

                     22                     23                     24
                      A                      A                      A
 Frequencies --    465.6610               496.2241               544.7042
 Red. masses --      3.8625                 5.5389                 3.7808
 Frc consts  --      0.4935                 0.8036                 0.6609
 IR Inten    --     14.9589                40.5901                10.6405

                     25                     26                     27
                      A                      A                      A
 Frequencies --    564.3154               596.1142               625.6562
 Red. masses --      6.8305                 5.2809                 6.3881
 Frc consts  --      1.2816                 1.1056                 1.4733
 IR Inten    --    103.0092               198.6666                 0.7311

                     28                     29                     30
                      A                      A                      A
 Frequencies --    664.1603               697.6233               702.5301
 Red. masses --      4.6992                 2.5291                 6.1474
 Frc consts  --      1.2213                 0.7252                 1.7876
 IR Inten    --     52.7307                12.5597                34.3261

                     31                     32                     33
                      A                      A                      A
 Frequencies --    703.5373               752.7435               781.2542
 Red. masses --      4.1825                 1.1589                 1.6406
 Frc consts  --      1.2197                 0.3869                 0.5900
 IR Inten    --     20.2910               147.0684                68.1011

                     34                     35                     36
                      A                      A                      A
 Frequencies --    805.3164               845.6790               856.1055
 Red. masses --      4.2401                 1.4195                 1.3612
 Frc consts  --      1.6202                 0.5981                 0.5878
 IR Inten    --     54.2191                18.6909                26.3927

                     37                     38                     39
                      A                      A                      A
 Frequencies --    865.1830               897.3960               945.5991
 Red. masses --      3.5401                 4.9415                 1.3581
 Frc consts  --      1.5613                 2.3446                 0.7155
 IR Inten    --     70.1739               191.2579                 6.6501

                     40                     41                     42
                      A                      A                      A
 Frequencies --    987.3614               997.3071              1008.7400
 Red. masses --      1.3467                 2.5970                 8.1679
 Frc consts  --      0.7735                 1.5219                 4.8969
 IR Inten    --      0.5342                29.1012                18.9139

                     43                     44                     45
                      A                      A                      A
 Frequencies --   1020.6473              1022.8837              1053.6407
 Red. masses --      1.2976                 6.2504                 2.1776
 Frc consts  --      0.7964                 3.8531                 1.4243
 IR Inten    --      0.2408                 0.7073                 3.6720

                     46                     47                     48
                      A                      A                      A
 Frequencies --   1073.2781              1081.1696              1110.2077
 Red. masses --      1.1576                 2.4330                 1.9270
 Frc consts  --      0.7857                 1.6756                 1.3994
 IR Inten    --     12.3952                94.9552                18.9234

                     49                     50                     51
                      A                      A                      A
 Frequencies --   1115.8108              1148.6830              1150.5882
 Red. masses --      2.1850                 4.9229                 1.6896
 Frc consts  --      1.6028                 3.8271                 1.3179
 IR Inten    --      5.1455               233.3330                10.4746

                     52                     53                     54
                      A                      A                      A
 Frequencies --   1187.3717              1196.1834              1200.9290
 Red. masses --      1.6889                 1.0996                 1.1586
 Frc consts  --      1.4029                 0.9270                 0.9845
 IR Inten    --     76.7399                 0.3163                 2.4790

                     55                     56                     57
                      A                      A                      A
 Frequencies --   1226.5974              1244.5675              1248.6019
 Red. masses --      2.3323                 2.0011                 1.6224
 Frc consts  --      2.0674                 1.8262                 1.4902
 IR Inten    --     33.2823                 8.3770                 0.8575

                     58                     59                     60
                      A                      A                      A
 Frequencies --   1334.1311              1339.8049              1368.5454
 Red. masses --      2.7588                 2.1956                 4.0742
 Frc consts  --      2.8931                 2.3221                 4.4959
 IR Inten    --     24.2780                15.6807                10.1420

                     61                     62                     63
                      A                      A                      A
 Frequencies --   1377.8277              1392.8202              1425.5418
 Red. masses --      2.6617                 3.2506                 1.4200
 Frc consts  --      2.9771                 3.7154                 1.7002
 IR Inten    --    137.6793               129.4098                19.7725

                     64                     65                     66
                      A                      A                      A
 Frequencies --   1439.4670              1449.7341              1466.3577
 Red. masses --      1.4378                 1.8284                 1.1899
 Frc consts  --      1.7553                 2.2642                 1.5074
 IR Inten    --     29.3639                50.0221                13.8081

                     67                     68                     69
                      A                      A                      A
 Frequencies --   1468.2359              1484.8416              1491.4268
 Red. masses --      2.6767                 1.3566                 1.6227
 Frc consts  --      3.3997                 1.7623                 2.1266
 IR Inten    --      6.5286                 9.7715                88.4706

                     70                     71                     72
                      A                      A                      A
 Frequencies --   1497.4739              1510.2674              1514.4571
 Red. masses --      1.1079                 1.0428                 1.0679
 Frc consts  --      1.4638                 1.4013                 1.4431
 IR Inten    --     19.5035                33.3316                33.1917

                     73                     74                     75
                      A                      A                      A
 Frequencies --   1516.4940              1536.3662              1541.1565
 Red. masses --      2.5617                 1.0719                 2.4053
 Frc consts  --      3.4710                 1.4907                 3.3661
 IR Inten    --     58.1186                81.5325                25.4801

                     76                     77                     78
                      A                      A                      A
 Frequencies --   1649.2496              1654.5605              1667.6565
 Red. masses --      5.7216                 5.7577                 5.8143
 Frc consts  --      9.1694                 9.2868                 9.5271
 IR Inten    --     93.3647                47.8930               187.8506

                     79                     80                     81
                      A                      A                      A
 Frequencies --   3126.4369              3130.3661              3221.5173
 Red. masses --      1.0296                 1.0291                 1.0870
 Frc consts  --      5.9295                 5.9414                 6.6468
 IR Inten    --      2.9334                 3.6852                 0.3377

                     82                     83                     84
                      A                      A                      A
 Frequencies --   3222.4123              3230.3222              3231.7039
 Red. masses --      1.1084                 1.1095                 1.0900
 Frc consts  --      6.7815                 6.8214                 6.7069
 IR Inten    --      0.9393                 2.1013                12.0913

                     85                     86                     87
                      A                      A                      A
 Frequencies --   3237.8261              3239.0499              3240.7938
 Red. masses --      1.1109                 1.0934                 1.1101
 Frc consts  --      6.8619                 6.7590                 6.8693
 IR Inten    --      1.5626                25.8453                 0.9589

                     88                     89                     90
                      A                      A                      A
 Frequencies --   3246.5451              3255.3265              3351.9711
 Red. masses --      1.0962                 1.0947                 1.0849
 Frc consts  --      6.8076                 6.8349                 7.1818
 IR Inten    --      7.7815                 1.5364               243.8957

                     91                     92                     93
                      A                      A                      A
 Frequencies --   3356.7073              3473.8513              3484.6633
 Red. masses --      1.0955                 1.0784                 1.0877
 Frc consts  --      7.2725                 7.6672                 7.7820
 IR Inten    --     42.2693               254.8316               780.3654

 - Thermochemistry -
 -------------------
 Temperature   298.150 Kelvin.  Pressure   1.00000 Atm.
 Atom     1 has atomic number  8 and mass  15.99491

 Molecular mass:   269.09465 amu.
 Principal axes and moments of inertia in atomic units:
                           1         2         3
     Eigenvalues --  1984.45169********************
           X            0.99839   0.05597  -0.00901
           Y           -0.05552   0.99748   0.04423
           Z            0.01147  -0.04365   0.99898
 This molecule is an asymmetric top.
 Rotational symmetry number  1.
 Warning -- assumption of classical behavior for rotation
           may cause significant error
 Rotational temperatures (Kelvin)      0.04365     0.00829     0.00756
 Rotational constants (GHZ):           0.90944     0.17272     0.15755
 Zero-point vibrational energy     705633.6 (Joules/Mol)
                                  168.65048 (Kcal/Mol)
 Warning -- explicit consideration of  26 degrees of freedom as
           vibrations may cause significant error
 Vibrational temperatures:     47.26    66.86    89.45   113.07   145.36
          (Kelvin)            156.65   188.58   232.93   274.39   326.49
                              356.92   367.50   392.73   417.55   452.75
                              503.59   522.89   568.41   599.74   600.81
                              644.00   669.98   713.96   783.71   811.92
                              857.68   900.18   955.58  1003.72  1010.78
                             1012.23  1083.03  1124.05  1158.67  1216.74
                             1231.74  1244.81  1291.15  1360.51  1420.59
                             1434.90  1451.35  1468.48  1471.70  1515.95
                             1544.21  1555.56  1597.34  1605.40  1652.70
                             1655.44  1708.36  1721.04  1727.87  1764.80
                             1790.66  1796.46  1919.52  1927.68  1969.03
                             1982.39  2003.96  2051.04  2071.07  2085.84
                             2109.76  2112.46  2136.36  2145.83  2154.53
                             2172.94  2178.97  2181.90  2210.49  2217.38
                             2372.90  2380.54  2399.39  4498.25  4503.90
                             4635.04  4636.33  4647.71  4649.70  4658.51
                             4660.27  4662.78  4671.05  4683.69  4822.74
                             4829.55  4998.10  5013.65

 Zero-point correction=                           0.268762 (Hartree/Particle)
 Thermal correction to Energy=                    0.285606
 Thermal correction to Enthalpy=                  0.286550
 Thermal correction to Gibbs Free Energy=         0.223420
 Sum of electronic and zero-point Energies=          -1211.793830
 Sum of electronic and thermal Energies=             -1211.776985
 Sum of electronic and thermal Enthalpies=           -1211.776041
 Sum of electronic and thermal Free Energies=        -1211.839171

                     E (Thermal)             CV                S
                      KCal/Mol        Cal/Mol-Kelvin    Cal/Mol-Kelvin
 Total                  179.221             64.271            132.868
 Electronic               0.000              0.000              0.000
 Translational            0.889              2.981             42.669
 Rotational               0.889              2.981             33.829
 Vibrational            177.443             58.309             56.371
 Vibration     1          0.594              1.983              5.650
 Vibration     2          0.595              1.979              4.962
 Vibration     3          0.597              1.972              4.387
 Vibration     4          0.600              1.964              3.926
 Vibration     5          0.604              1.948              3.434
 Vibration     6          0.606              1.942              3.289
 Vibration     7          0.612              1.922              2.930
 Vibration     8          0.622              1.889              2.528
 Vibration     9          0.634              1.853              2.221
 Vibration    10          0.651              1.800              1.903
 Vibration    11          0.662              1.766              1.744
 Vibration    12          0.666              1.754              1.693
 Vibration    13          0.676              1.723              1.577
 Vibration    14          0.686              1.692              1.473
 Vibration    15          0.702              1.646              1.338
 Vibration    16          0.727              1.575              1.166
 Vibration    17          0.737              1.548              1.107
 Vibration    18          0.762              1.481              0.981
 Vibration    19          0.780              1.434              0.903
 Vibration    20          0.781              1.432              0.900
 Vibration    21          0.807              1.366              0.803
 Vibration    22          0.823              1.326              0.750
 Vibration    23          0.852              1.258              0.668
 Vibration    24          0.900              1.151              0.555
 Vibration    25          0.920              1.108              0.515
 Vibration    26          0.954              1.040              0.456

 Optimization completed.
    -- Stationary point found.
 Normal termination of Gaussian 16 at Thu Sep 24 18:15:03 2020.

 ----------------------------------------------------------------------
 #p b3lyp/6-31G(d) scrf=(iefpcm,read,solvent=water) geom=allcheck guess
 =read
 ----------------------------------------------------------------------

 Structure from the checkpoint file:  "SM46_m3.b.9.pdb.xyz.mst.b.w.chk"
 -------------------
 SM46_m3.b.9.pdb.xyz
 -------------------
 Charge =  2 Multiplicity = 1

 SCF Done:  E(RB3LYP) =  -1212.06233981     A.U. after    7 cycles
 Normal termination of Gaussian 16 at Thu Sep 24 18:15:40 2020.

 -----------------------------
 #p B3LYP/6-31G* geom=allcheck
 -----------------------------

 Structure from the checkpoint file:  "SM46_m3.b.9.pdb.xyz.mst.b.w.chk"
 -------------------
 SM46_m3.b.9.pdb.xyz
 -------------------
 Charge =  2 Multiplicity = 1

 SCF Done:  E(RB3LYP) =  -1211.75657061     A.U. after   16 cycles
 Normal termination of Gaussian 16 at Thu Sep 24 18:16:24 2020.
 Gaussian 16:  ES64L-G16RevB.01 20-Dec-2017

 ----------------------------------------------------------------------
 #p mp2/aug-cc-pVDZ scf=(MaxCycle=2000,NoVarAcc,NoIncFock) maxdisk=120G
 B geom=allcheck
 ----------------------------------------------------------------------

 Structure from the checkpoint file:  "SM46_m3.b.9.pdb.xyz.mst.b.w.chk"
 -------------------
 SM46_m3.b.9.pdb.xyz
 -------------------
 Charge =  2 Multiplicity = 1

                         Standard orientation:
 ---------------------------------------------------------------------
 Center     Atomic      Atomic             Coordinates (Angstroms)
 Number     Number       Type             X           Y           Z
 ---------------------------------------------------------------------
      1          8           0       -2.209429    0.153624   -1.713014
      2         16           0       -2.839701   -0.324092   -0.501155
      3          7           0       -1.769258   -1.156063    0.445230
      4          6           0       -0.394968   -1.113931    0.245423
      5          7           0        0.345880   -2.206827   -0.075686
      6          7           0        1.625897   -1.944470   -0.171821
      7          6           0        0.509556   -0.082575    0.345498
      8          7           0        1.716176   -0.646255    0.068825
      9          6           0        3.000776   -0.006022    0.035600
     10          6           0        3.084472    1.316109   -0.397768
     11          6           0        4.336706    1.926889   -0.428274
     12          6           0        5.475527    1.217849   -0.041376
     13          6           0        5.367541   -0.108037    0.384793
     14          6           0        4.123447   -0.732096    0.431999
     15          7           0       -3.054494    1.218294    0.506770
     16          6           0       -3.836660    2.227330   -0.285714
     17          6           0       -3.661662    0.930826    1.847037
     18          8           0       -4.125809   -0.984327   -0.434545
     19          1           0       -2.175444   -1.954487    0.942622
     20          1           0        0.375623    0.952531    0.606450
     21          1           0        2.200464    1.850739   -0.723002
     22          1           0        4.419415    2.953278   -0.766187
     23          1           0        6.447161    1.697889   -0.071975
     24          1           0        6.249984   -0.657792    0.690756
     25          1           0        4.018361   -1.753227    0.774967
     26          1           0       -3.331775    2.385571   -1.234888
     27          1           0       -3.851764    3.146243    0.297388
     28          1           0       -4.846581    1.850978   -0.432565
     29          1           0       -3.011542    0.248809    2.389632
     30          1           0       -4.649720    0.502409    1.696008
     31          1           0       -3.731391    1.880687    2.373864
     32          1           0        0.020705   -3.167458   -0.223690
     33          1           0       -2.094195    1.584118    0.643046
 ---------------------------------------------------------------------

 SCF Done:  E(RHF) =  -1206.28201416     A.U. after   18 cycles
 E2 =    -0.2803856461D+01 EUMP2 =    -0.12090858706237D+04

 The electronic state is 1-A.
 Alpha  occ. eigenvalues --  -92.57519 -20.88867 -20.88642 -16.01099 -16.01049
 Alpha  occ. eigenvalues --  -16.00411 -15.99502 -15.96026 -11.66540 -11.61121
 Alpha  occ. eigenvalues --  -11.57382 -11.56554 -11.53375 -11.48353 -11.47660
 Alpha  occ. eigenvalues --  -11.46101 -11.45892 -11.45762  -9.53900  -7.22419
 Alpha  occ. eigenvalues --   -7.22395  -7.22355  -1.80612  -1.79628  -1.67260
 Alpha  occ. eigenvalues --   -1.61226  -1.60412  -1.56589  -1.42553  -1.39160
 Alpha  occ. eigenvalues --   -1.29416  -1.28524  -1.26047  -1.24741  -1.20895
 Alpha  occ. eigenvalues --   -1.19317  -1.16468  -1.12240  -1.08698  -1.06656
 Alpha  occ. eigenvalues --   -1.05450  -1.01946  -1.01796  -1.01278  -0.98778
 Alpha  occ. eigenvalues --   -0.97537  -0.95556  -0.94557  -0.93100  -0.90234
 Alpha  occ. eigenvalues --   -0.89167  -0.86704  -0.85941  -0.85783  -0.85277
 Alpha  occ. eigenvalues --   -0.84190  -0.83390  -0.82685  -0.81413  -0.81281
 Alpha  occ. eigenvalues --   -0.80713  -0.79479  -0.78693  -0.78176  -0.73521
 Alpha  occ. eigenvalues --   -0.72414  -0.71572  -0.67749  -0.56202  -0.55976
 Alpha virt. eigenvalues --   -0.20496  -0.19548  -0.17922  -0.16813  -0.15004
 Alpha virt. eigenvalues --   -0.14326  -0.14161  -0.13320  -0.12756  -0.12209
 Alpha virt. eigenvalues --   -0.11958  -0.11155  -0.11036  -0.10848  -0.09947

 Mulliken charges:
               1
     1  O   -0.993292
     2  S    3.015741
     3  N   -0.940958
     4  C    0.484341
     5  N   -0.366935
     6  N   -0.195504
     7  C    1.441864
     8  N   -0.660746
     9  C    0.956611
    10  C    0.438139
    11  C    0.530862
    12  C    0.613222
    13  C    0.529621
    14  C    0.481522
    15  N   -0.770230
    16  C    0.786789
    17  C    0.812824
    18  O   -0.995799
    19  H   -0.004200
    20  H   -0.554144
    21  H   -0.626663
    22  H   -0.414075
    23  H   -0.401864
    24  H   -0.397310
    25  H   -0.515746
    26  H   -0.085462
    27  H   -0.089987
    28  H   -0.046339
    29  H   -0.165498
    30  H   -0.014602
    31  H   -0.072847
    32  H    0.037086
    33  H    0.183575
 Sum of Mulliken charges =   2.00000

 Dipole moment (field-independent basis, Debye):
    X=             -5.5347    Y=              1.7419    Z=              5.5168  Tot=              8.0064
 Quadrupole moment (field-independent basis, Debye-Ang):
   XX=             -6.1068   YY=            -64.3244   ZZ=           -105.5383
   XY=            -14.0238   XZ=            -13.7703   YZ=             -1.4323

 Normal termination of Gaussian 16 at Thu Sep 24 18:52:47 2020.
