 Gaussian 16, Revision B.01,

 ----------------------------------------------------------------------
 #p b3lyp/6-31G(d) opt freq NoSymm scf=(MaxCycle=2000,NoVarAcc,NoIncFoc
 k) scrf=(iefpcm,read,solvent=water)
 ----------------------------------------------------------------------

 -------------------
 SM46_m2.b.6.pdb.xyz
 -------------------
 Symbolic Z-matrix:
 Charge =  1 Multiplicity = 1

 SCF Done:  E(RB3LYP) =  -1211.63506493     A.U. after   13 cycles
 SCF Done:  E(RB3LYP) =  -1211.63520247     A.U. after   10 cycles
 SCF Done:  E(RB3LYP) =  -1211.63518259     A.U. after    9 cycles
 SCF Done:  E(RB3LYP) =  -1211.63516779     A.U. after    9 cycles
 SCF Done:  E(RB3LYP) =  -1211.63520029     A.U. after    9 cycles
 SCF Done:  E(RB3LYP) =  -1211.63514882     A.U. after   10 cycles
 SCF Done:  E(RB3LYP) =  -1211.63519906     A.U. after   10 cycles
 SCF Done:  E(RB3LYP) =  -1211.63506804     A.U. after   11 cycles
 SCF Done:  E(RB3LYP) =  -1211.63518502     A.U. after   11 cycles
 SCF Done:  E(RB3LYP) =  -1211.63515719     A.U. after    9 cycles
 SCF Done:  E(RB3LYP) =  -1211.63591064     A.U. after    8 cycles
 SCF Done:  E(RB3LYP) =  -1211.63590851     A.U. after    8 cycles
 SCF Done:  E(RB3LYP) =  -1211.63591183     A.U. after    8 cycles
 SCF Done:  E(RB3LYP) =  -1211.63591588     A.U. after    8 cycles
 SCF Done:  E(RB3LYP) =  -1211.63591753     A.U. after    7 cycles
 SCF Done:  E(RB3LYP) =  -1211.63591819     A.U. after    6 cycles
 Optimization completed.
    -- Stationary point found.
 Normal termination of Gaussian 16 at Mon Sep 28 09:16:14 2020.

 --------------------------------------------------------------------
 #P Geom=AllCheck Guess=TCheck SCRF=Check GenChk RB3LYP/6-31G(d) Freq
 --------------------------------------------------------------------

 Structure from the checkpoint file:  "SM46_m2.b.6.pdb.xyz.mst.b.w.chk"
 -------------------
 SM46_m2.b.6.pdb.xyz
 -------------------
 Charge =  1 Multiplicity = 1

 SCF Done:  E(RB3LYP) =  -1211.63591819     A.U. after    1 cycles

  Exact polarizability: 291.038 -29.340 166.396  11.120  38.889 178.480
 Approx polarizability: 307.612 -34.601 202.654  18.792  53.520 213.662

                      1                      2                      3
                      A                      A                      A
 Frequencies --     24.3990                32.2542                55.9488
 Red. masses --      4.2863                 4.2121                 4.6527
 Frc consts  --      0.0015                 0.0026                 0.0086
 IR Inten    --      1.2673                 2.1342                 4.2614

                      4                      5                      6
                      A                      A                      A
 Frequencies --     63.5359                83.0353                99.3073
 Red. masses --      5.1804                 3.5143                 4.2982
 Frc consts  --      0.0123                 0.0143                 0.0250
 IR Inten    --      1.8401                 1.3562                 1.4994

                      7                      8                      9
                      A                      A                      A
 Frequencies --    153.5472               172.2869               191.8815
 Red. masses --      5.5041                 3.1234                 1.1576
 Frc consts  --      0.0765                 0.0546                 0.0251
 IR Inten    --      5.6905                 1.0934                 0.2645

                     10                     11                     12
                      A                      A                      A
 Frequencies --    224.0069               252.0302               266.1487
 Red. masses --      1.1155                 4.7730                 6.3088
 Frc consts  --      0.0330                 0.1786                 0.2633
 IR Inten    --      0.6168                 3.7011                 2.4823

                     13                     14                     15
                      A                      A                      A
 Frequencies --    280.5439               304.8654               338.6418
 Red. masses --      4.3494                 6.7958                 3.1107
 Frc consts  --      0.2017                 0.3721                 0.2102
 IR Inten    --      6.9021                 3.1563                28.5415

                     16                     17                     18
                      A                      A                      A
 Frequencies --    357.1888               366.8290               381.3281
 Red. masses --      3.1824                 4.1659                 6.4586
 Frc consts  --      0.2392                 0.3303                 0.5533
 IR Inten    --     36.6875                15.6414                13.1736

                     19                     20                     21
                      A                      A                      A
 Frequencies --    417.1285               430.3062               457.3628
 Red. masses --      2.9827                 1.6069                 5.6825
 Frc consts  --      0.3058                 0.1753                 0.7003
 IR Inten    --      0.0712               169.3326                11.3485

                     22                     23                     24
                      A                      A                      A
 Frequencies --    480.7572               493.8760               533.0795
 Red. masses --      5.7177                 5.6404                 4.0213
 Frc consts  --      0.7786                 0.8106                 0.6733
 IR Inten    --     48.5678                 8.2821                 8.7313

                     25                     26                     27
                      A                      A                      A
 Frequencies --    549.7631               602.3278               626.2401
 Red. masses --      9.7772                 1.1886                 6.1757
 Frc consts  --      1.7411                 0.2541                 1.4270
 IR Inten    --    232.8399               150.2663                 1.4731

                     28                     29                     30
                      A                      A                      A
 Frequencies --    668.4604               687.5940               695.5754
 Red. masses --      4.2725                 6.8744                 3.7346
 Frc consts  --      1.1248                 1.9149                 1.0646
 IR Inten    --     22.4787               244.3002                66.1636

                     31                     32                     33
                      A                      A                      A
 Frequencies --    696.9306               704.4477               771.3558
 Red. masses --      3.1819                 4.0300                 2.7244
 Frc consts  --      0.9106                 1.1783                 0.9551
 IR Inten    --     20.8054                16.5180                70.6997

                     34                     35                     36
                      A                      A                      A
 Frequencies --    783.1101               796.6720               846.5339
 Red. masses --      1.8702                 1.7004                 4.7971
 Frc consts  --      0.6758                 0.6359                 2.0254
 IR Inten    --     97.9690                32.7716               231.3518

                     37                     38                     39
                      A                      A                      A
 Frequencies --    852.1137               944.2751               953.0386
 Red. masses --      1.2857                 1.3756                 3.1001
 Frc consts  --      0.5500                 0.7227                 1.6590
 IR Inten    --      3.9952                 7.4052               168.2616

                     40                     41                     42
                      A                      A                      A
 Frequencies --    986.1172              1008.3031              1017.3874
 Red. masses --      1.3495                 8.0599                 1.2878
 Frc consts  --      0.7732                 4.8279                 0.7854
 IR Inten    --      0.5426                20.1102                 0.2337

                     43                     44                     45
                      A                      A                      A
 Frequencies --   1022.7425              1050.3008              1070.9255
 Red. masses --      6.3321                 2.1126                 2.1789
 Frc consts  --      3.9024                 1.3731                 1.4723
 IR Inten    --      1.3230                 4.3483                87.9584

                     46                     47                     48
                      A                      A                      A
 Frequencies --   1072.0376              1106.7851              1108.3437
 Red. masses --      1.5743                 1.5794                 3.0404
 Frc consts  --      1.0660                 1.1399                 2.2005
 IR Inten    --     20.5286                30.4434                 4.6355

                     49                     50                     51
                      A                      A                      A
 Frequencies --   1122.8395              1133.3806              1172.7192
 Red. masses --     11.2497                 1.2155                 1.3689
 Frc consts  --      8.3566                 0.9200                 1.1092
 IR Inten    --    333.5727                 2.1526                 2.1200

                     52                     53                     54
                      A                      A                      A
 Frequencies --   1191.5480              1194.1381              1201.1120
 Red. masses --      1.1408                 1.1835                 1.8182
 Frc consts  --      0.9543                 0.9943                 1.5455
 IR Inten    --      5.7325                 7.8335                64.1311

                     55                     56                     57
                      A                      A                      A
 Frequencies --   1225.3140              1240.1165              1289.6341
 Red. masses --      3.6641                 2.4589                 1.9920
 Frc consts  --      3.2412                 2.2280                 1.9520
 IR Inten    --     31.8767                 2.8923                35.9108

                     58                     59                     60
                      A                      A                      A
 Frequencies --   1303.8192              1341.5693              1348.0292
 Red. masses --      2.9501                 1.9076                 5.5451
 Frc consts  --      2.9547                 2.0228                 5.9369
 IR Inten    --     57.1966                25.5715               282.8111

                     61                     62                     63
                      A                      A                      A
 Frequencies --   1366.8149              1398.6776              1412.0108
 Red. masses --      4.7568                 2.7600                 2.1919
 Frc consts  --      5.2358                 3.1812                 2.5748
 IR Inten    --      4.6233                 1.5322               136.3229

                     64                     65                     66
                      A                      A                      A
 Frequencies --   1455.5419              1458.5726              1468.6617
 Red. masses --      4.1063                 1.1576                 1.1496
 Frc consts  --      5.1257                 1.4510                 1.4610
 IR Inten    --     13.4736                 2.0290                 2.5306

                     67                     68                     69
                      A                      A                      A
 Frequencies --   1503.1174              1504.1920              1515.6820
 Red. masses --      1.1221                 1.9664                 1.0661
 Frc consts  --      1.4937                 2.6214                 1.4430
 IR Inten    --     14.5323                21.2030                52.2215

                     70                     71                     72
                      A                      A                      A
 Frequencies --   1519.6023              1529.4898              1536.1196
 Red. masses --      1.0455                 2.8104                 1.0559
 Frc consts  --      1.4225                 3.8736                 1.4679
 IR Inten    --     16.2669               136.7251                16.3146

                     73                     74                     75
                      A                      A                      A
 Frequencies --   1540.3641              1649.9524              1653.5161
 Red. masses --      2.5047                 6.1862                 5.8458
 Frc consts  --      3.5015                 9.9224                 9.4169
 IR Inten    --     31.9486               417.3236                77.7752

                     76                     77                     78
                      A                      A                      A
 Frequencies --   1664.0396              3063.4722              3066.4690
 Red. masses --      6.2594                 1.0422                 1.0430
 Frc consts  --     10.2120                 5.7626                 5.7783
 IR Inten    --    270.1078                36.9659                63.6827

                     79                     80                     81
                      A                      A                      A
 Frequencies --   3147.2468              3149.3961              3204.4044
 Red. masses --      1.0975                 1.0967                 1.1025
 Frc consts  --      6.4047                 6.4092                 6.6699
 IR Inten    --     32.3227                12.5195                 4.7674

                     82                     83                     84
                      A                      A                      A
 Frequencies --   3207.2083              3219.6692              3230.3195
 Red. masses --      1.1024                 1.0870                 1.0897
 Frc consts  --      6.6810                 6.6388                 6.6994
 IR Inten    --      4.3598                 0.7242                12.4476

                     85                     86                     87
                      A                      A                      A
 Frequencies --   3236.2436              3245.4154              3253.6041
 Red. masses --      1.0934                 1.0960                 1.0946
 Frc consts  --      6.7469                 6.8015                 6.8268
 IR Inten    --     28.7095                 9.2423                 1.9032

                     88                     89                     90
                      A                      A                      A
 Frequencies --   3377.1391              3504.6505              3513.9838
 Red. masses --      1.1006                 1.0779                 1.0867
 Frc consts  --      7.3957                 7.8006                 7.9061
 IR Inten    --     35.9897               128.8266               685.9549

 - Thermochemistry -
 -------------------
 Temperature   298.150 Kelvin.  Pressure   1.00000 Atm.
 Atom     1 has atomic number  8 and mass  15.99491

 Molecular mass:   268.08682 amu.
 Principal axes and moments of inertia in atomic units:
                           1         2         3
     Eigenvalues --  1860.33598********************
           X            0.99929  -0.03757   0.00205
           Y            0.03208   0.82248  -0.56790
           Z            0.01965   0.56756   0.82310
 This molecule is an asymmetric top.
 Rotational symmetry number  1.
 Warning -- assumption of classical behavior for rotation
           may cause significant error
 Rotational temperatures (Kelvin)      0.04656     0.00831     0.00806
 Rotational constants (GHZ):           0.97012     0.17314     0.16794
 Zero-point vibrational energy     666568.0 (Joules/Mol)
                                  159.31357 (Kcal/Mol)
 Warning -- explicit consideration of  26 degrees of freedom as
           vibrations may cause significant error
 Vibrational temperatures:     35.10    46.41    80.50    91.41   119.47
          (Kelvin)            142.88   220.92   247.88   276.07   322.30
                              362.62   382.93   403.64   438.63   487.23
                              513.91   527.79   548.65   600.15   619.11
                              658.04   691.70   710.58   766.98   790.99
                              866.62   901.02   961.77   989.29  1000.78
                             1002.73  1013.54  1109.81  1126.72  1146.23
                             1217.97  1226.00  1358.60  1371.21  1418.80
                             1450.72  1463.79  1471.50  1511.15  1540.82
                             1542.42  1592.42  1594.66  1615.52  1630.68
                             1687.28  1714.37  1718.10  1728.13  1762.95
                             1784.25  1855.50  1875.91  1930.22  1939.51
                             1966.54  2012.39  2031.57  2094.20  2098.56
                             2113.08  2162.65  2164.20  2180.73  2186.37
                             2200.59  2210.13  2216.24  2373.91  2379.04
                             2394.18  4407.65  4411.96  4528.19  4531.28
                             4610.42  4614.46  4632.39  4647.71  4656.23
                             4669.43  4681.21  4858.95  5042.41  5055.84

 Zero-point correction=                           0.253882 (Hartree/Particle)
 Thermal correction to Energy=                    0.270746
 Thermal correction to Enthalpy=                  0.271690
 Thermal correction to Gibbs Free Energy=         0.207793
 Sum of electronic and zero-point Energies=          -1211.382036
 Sum of electronic and thermal Energies=             -1211.365173
 Sum of electronic and thermal Enthalpies=           -1211.364228
 Sum of electronic and thermal Free Energies=        -1211.428125

                     E (Thermal)             CV                S
                      KCal/Mol        Cal/Mol-Kelvin    Cal/Mol-Kelvin
 Total                  169.895             64.087            134.481
 Electronic               0.000              0.000              0.000
 Translational            0.889              2.981             42.657
 Rotational               0.889              2.981             33.699
 Vibrational            168.118             58.125             58.125
 Vibration     1          0.593              1.985              6.239
 Vibration     2          0.594              1.983              5.686
 Vibration     3          0.596              1.975              4.595
 Vibration     4          0.597              1.972              4.344
 Vibration     5          0.600              1.961              3.818
 Vibration     6          0.604              1.950              3.468
 Vibration     7          0.619              1.899              2.628
 Vibration     8          0.626              1.877              2.410
 Vibration     9          0.634              1.851              2.210
 Vibration    10          0.649              1.804              1.926
 Vibration    11          0.664              1.759              1.716
 Vibration    12          0.672              1.735              1.621
 Vibration    13          0.680              1.710              1.530
 Vibration    14          0.696              1.664              1.390
 Vibration    15          0.719              1.598              1.219
 Vibration    16          0.732              1.560              1.134
 Vibration    17          0.740              1.540              1.093
 Vibration    18          0.751              1.510              1.034
 Vibration    19          0.780              1.433              0.902
 Vibration    20          0.791              1.404              0.858
 Vibration    21          0.815              1.345              0.774
 Vibration    22          0.837              1.293              0.708
 Vibration    23          0.850              1.264              0.674
 Vibration    24          0.888              1.177              0.580
 Vibration    25          0.905              1.140              0.545
 Vibration    26          0.961              1.027              0.446

                           ! Non-Optimized Parameters !
 Normal termination of Gaussian 16 at Mon Sep 28 09:25:04 2020.

 ----------------------------------------------------------------------
 #p b3lyp/6-31G(d) scrf=(iefpcm,read,solvent=water) geom=allcheck guess
 =read
 ----------------------------------------------------------------------

 Structure from the checkpoint file:  "SM46_m2.b.6.pdb.xyz.mst.b.w.chk"
 -------------------
 SM46_m2.b.6.pdb.xyz
 -------------------
 Charge =  1 Multiplicity = 1

 SCF Done:  E(RB3LYP) =  -1211.63593780     A.U. after    7 cycles
 Normal termination of Gaussian 16 at Mon Sep 28 09:25:50 2020.

 -----------------------------
 #p B3LYP/6-31G* geom=allcheck
 -----------------------------

 Structure from the checkpoint file:  "SM46_m2.b.6.pdb.xyz.mst.b.w.chk"
 -------------------
 SM46_m2.b.6.pdb.xyz
 -------------------
 Charge =  1 Multiplicity = 1

 SCF Done:  E(RB3LYP) =  -1211.53211224     A.U. after   16 cycles
 Normal termination of Gaussian 16 at Mon Sep 28 09:26:33 2020.
 Gaussian 16:  ES64L-G16RevB.01 20-Dec-2017

 ----------------------------------------------------------------------
 #p mp2/aug-cc-pVDZ scf=(MaxCycle=2000,NoVarAcc,NoIncFock) maxdisk=120G
 B geom=allcheck
 ----------------------------------------------------------------------

 Structure from the checkpoint file:  "SM46_m2.b.6.pdb.xyz.mst.b.w.chk"
 -------------------
 SM46_m2.b.6.pdb.xyz
 -------------------
 Charge =  1 Multiplicity = 1

                         Standard orientation:
 ---------------------------------------------------------------------
 Center     Atomic      Atomic             Coordinates (Angstroms)
 Number     Number       Type             X           Y           Z
 ---------------------------------------------------------------------
      1          8           0        1.907318   -1.754249   -0.299223
      2         16           0        2.839599   -0.638402   -0.424611
      3          7           0        1.875101    0.655566   -0.993413
      4          6           0        0.537407    0.787197   -0.724104
      5          7           0       -0.098900    1.988191   -0.722608
      6          7           0       -1.400516    1.891947   -0.507641
      7          6           0       -0.460715   -0.136439   -0.464707
      8          7           0       -1.598672    0.600759   -0.338319
      9          6           0       -2.918718    0.113120   -0.063404
     10          6           0       -3.272304   -1.162197   -0.501845
     11          6           0       -4.555161   -1.631146   -0.225098
     12          6           0       -5.463535   -0.829334    0.468807
     13          6           0       -5.089927    0.447998    0.893370
     14          6           0       -3.808588    0.928916    0.634422
     15          7           0        3.445763   -0.313267    1.076368
     16          6           0        4.496245    0.714113    1.162241
     17          6           0        2.500920   -0.339130    2.205006
     18          8           0        3.961905   -0.661362   -1.353650
     19          1           0        2.392159    1.512431   -1.197972
     20          1           0       -0.418939   -1.202338   -0.344863
     21          1           0       -2.571139   -1.769006   -1.061997
     22          1           0       -4.843757   -2.619767   -0.562402
     23          1           0       -6.461036   -1.199043    0.678523
     24          1           0       -5.791846    1.070197    1.436407
     25          1           0       -3.496385    1.909603    0.969753
     26          1           0        5.185859    0.597370    0.329209
     27          1           0        5.034597    0.547499    2.096493
     28          1           0        4.078582    1.727385    1.165569
     29          1           0        1.794708   -1.155096    2.065556
     30          1           0        1.964381    0.610120    2.311363
     31          1           0        3.083477   -0.522209    3.109536
     32          1           0        0.308794    2.911204   -0.887258
 ---------------------------------------------------------------------

 SCF Done:  E(RHF) =  -1206.06136041     A.U. after   17 cycles
 E2 =    -0.2802400620D+01 EUMP2 =    -0.12088637610258D+04

 The electronic state is 1-A.
 Alpha  occ. eigenvalues --  -92.38721 -20.69975 -20.69154 -15.89235 -15.87444
 Alpha  occ. eigenvalues --  -15.86224 -15.78970 -15.74600 -11.53720 -11.46515
 Alpha  occ. eigenvalues --  -11.44045 -11.39963 -11.39534 -11.39110 -11.38793
 Alpha  occ. eigenvalues --  -11.37569 -11.37487 -11.37387  -9.35069  -7.03633
 Alpha  occ. eigenvalues --   -7.03600  -7.03527  -1.67671  -1.61171  -1.48290
 Alpha  occ. eigenvalues --   -1.47269  -1.41687  -1.38325  -1.29810  -1.28436
 Alpha  occ. eigenvalues --   -1.19244  -1.16127  -1.10471  -1.09780  -1.08865
 Alpha  occ. eigenvalues --   -1.05880  -0.98907  -0.97635  -0.96563  -0.93974
 Alpha  occ. eigenvalues --   -0.88033  -0.87499  -0.86936  -0.86705  -0.83208
 Alpha  occ. eigenvalues --   -0.81202  -0.80607  -0.78966  -0.77136  -0.76659
 Alpha  occ. eigenvalues --   -0.74517  -0.73830  -0.73087  -0.72183  -0.70825
 Alpha  occ. eigenvalues --   -0.69644  -0.68997  -0.66635  -0.66324  -0.65068
 Alpha  occ. eigenvalues --   -0.64527  -0.63654  -0.63196  -0.61974  -0.61417
 Alpha  occ. eigenvalues --   -0.60415  -0.55158  -0.50730  -0.47390  -0.47160
 Alpha virt. eigenvalues --   -0.09128  -0.08513  -0.05786  -0.04997  -0.04636
 Alpha virt. eigenvalues --   -0.03609  -0.03343  -0.02954  -0.02838  -0.02323
 Alpha virt. eigenvalues --   -0.01521  -0.01334  -0.01296  -0.00590  -0.00502

 Mulliken charges:
               1
     1  O   -1.103494
     2  S    2.922192
     3  N   -0.688887
     4  C    0.560713
     5  N   -0.426086
     6  N   -0.305009
     7  C    1.244341
     8  N   -0.569837
     9  C    0.858741
    10  C    0.336711
    11  C    0.615826
    12  C    0.665223
    13  C    0.466635
    14  C    0.707394
    15  N   -1.037192
    16  C    0.688362
    17  C    0.845416
    18  O   -1.023352
    19  H   -0.107403
    20  H   -0.596552
    21  H   -0.638288
    22  H   -0.422702
    23  H   -0.417338
    24  H   -0.412306
    25  H   -0.521984
    26  H   -0.121835
    27  H   -0.122947
    28  H   -0.040861
    29  H   -0.139294
    30  H   -0.038019
    31  H   -0.174720
    32  H   -0.003448
 Sum of Mulliken charges =   1.00000

 Dipole moment (field-independent basis, Debye):
    X=             -3.1318    Y=              6.2519    Z=              2.4480  Tot=              7.4086
 Quadrupole moment (field-independent basis, Debye-Ang):
   XX=            -60.8016   YY=            -94.1947   ZZ=           -106.4021
   XY=             20.4138   XZ=              8.8550   YZ=             -3.2566

 Normal termination of Gaussian 16 at Mon Sep 28 10:23:00 2020.
