 Gaussian 16, Revision B.01,

 ----------------------------------------------------------------------
 #p b3lyp/6-31G(d) opt freq NoSymm scf=(MaxCycle=2000,NoVarAcc,NoIncFoc
 k) scrf=(iefpcm,read,solvent=water)
 ----------------------------------------------------------------------

 -------------------
 SM46_m1.a.9.pdb.xyz
 -------------------
 Symbolic Z-matrix:
 Charge = -1 Multiplicity = 1

 SCF Done:  E(RB3LYP) =  -1210.71717531     A.U. after   13 cycles
 SCF Done:  E(RB3LYP) =  -1210.71707238     A.U. after   10 cycles
 SCF Done:  E(RB3LYP) =  -1210.71705449     A.U. after   10 cycles
 SCF Done:  E(RB3LYP) =  -1210.71717375     A.U. after   10 cycles
 SCF Done:  E(RB3LYP) =  -1210.71717814     A.U. after    9 cycles
 SCF Done:  E(RB3LYP) =  -1210.71698820     A.U. after   10 cycles
 SCF Done:  E(RB3LYP) =  -1210.71702621     A.U. after   11 cycles
 SCF Done:  E(RB3LYP) =  -1210.71717178     A.U. after   10 cycles
 SCF Done:  E(RB3LYP) =  -1210.71717802     A.U. after    9 cycles
 SCF Done:  E(RB3LYP) =  -1210.71703943     A.U. after   10 cycles
 SCF Done:  E(RB3LYP) =  -1210.71713600     A.U. after    4 cycles
 SCF Done:  E(RB3LYP) =  -1210.71713599     A.U. after    2 cycles
 SCF Done:  E(RB3LYP) =  -1210.71688611     A.U. after   11 cycles
 SCF Done:  E(RB3LYP) =  -1210.71694408     A.U. after    9 cycles
 SCF Done:  E(RB3LYP) =  -1210.71694234     A.U. after    7 cycles
 SCF Done:  E(RB3LYP) =  -1210.71694066     A.U. after    7 cycles
 Optimization completed.
    -- Stationary point found.
 Normal termination of Gaussian 16 at Thu Sep 24 17:09:53 2020.

 --------------------------------------------------------------------
 #P Geom=AllCheck Guess=TCheck SCRF=Check GenChk RB3LYP/6-31G(d) Freq
 --------------------------------------------------------------------

 Structure from the checkpoint file:  "SM46_m1.a.9.pdb.xyz.mst.a.w.chk"
 -------------------
 SM46_m1.a.9.pdb.xyz
 -------------------
 Charge = -1 Multiplicity = 1

 SCF Done:  E(RB3LYP) =  -1210.71694066     A.U. after    1 cycles

  Exact polarizability: 302.389  24.925 191.276  12.649 -48.445 168.138
 Approx polarizability: 320.439  34.702 231.081  16.085 -67.313 201.339

                      1                      2                      3
                      A                      A                      A
 Frequencies --     25.8267                35.2173                55.8627
 Red. masses --      4.6738                 4.1846                 3.4972
 Frc consts  --      0.0018                 0.0031                 0.0064
 IR Inten    --      4.0202                 2.6876                 1.5619

                      4                      5                      6
                      A                      A                      A
 Frequencies --     59.6556                79.0307                88.9679
 Red. masses --      4.0570                 6.7941                 5.0983
 Frc consts  --      0.0085                 0.0250                 0.0238
 IR Inten    --      5.6706                 2.3359                 7.4991

                      7                      8                      9
                      A                      A                      A
 Frequencies --    159.8981               182.1653               214.7842
 Red. masses --      6.5914                 1.8948                 1.1542
 Frc consts  --      0.0993                 0.0370                 0.0314
 IR Inten    --      8.9858                 1.8850                 0.4910

                     10                     11                     12
                      A                      A                      A
 Frequencies --    217.8534               234.0197               271.8085
 Red. masses --      1.6771                 3.5947                 4.2178
 Frc consts  --      0.0469                 0.1160                 0.1836
 IR Inten    --      2.1631                 8.3164                 2.1137

                     13                     14                     15
                      A                      A                      A
 Frequencies --    283.6523               333.0595               341.7019
 Red. masses --      7.1015                 7.1200                 3.2964
 Frc consts  --      0.3366                 0.4653                 0.2268
 IR Inten    --      4.0439                 7.8379                 3.5029

                     16                     17                     18
                      A                      A                      A
 Frequencies --    366.1972               404.7674               417.6073
 Red. masses --      4.5801                 7.7036                 5.8327
 Frc consts  --      0.3619                 0.7436                 0.5993
 IR Inten    --      3.5036                 5.8504                 7.3284

                     19                     20                     21
                      A                      A                      A
 Frequencies --    420.3139               456.7425               489.3270
 Red. masses --      3.4183                 6.2779                 5.7802
 Frc consts  --      0.3558                 0.7716                 0.8154
 IR Inten    --      0.9816                 6.7097                14.5204

                     22                     23                     24
                      A                      A                      A
 Frequencies --    504.1277               531.7583               581.2548
 Red. masses --      5.6670                 3.6620                10.0482
 Frc consts  --      0.8486                 0.6101                 2.0002
 IR Inten    --     21.2715                 2.3460               135.4708

                     25                     26                     27
                      A                      A                      A
 Frequencies --    628.8012               642.7230               667.1759
 Red. masses --      6.4104                 7.3349                 4.1317
 Frc consts  --      1.4934                 1.7852                 1.0836
 IR Inten    --      1.1429               294.1787                 9.8433

                     28                     29                     30
                      A                      A                      A
 Frequencies --    692.3900               702.8050               706.2452
 Red. masses --      7.3003                 2.3485                 2.2859
 Frc consts  --      2.0620                 0.6835                 0.6718
 IR Inten    --     56.5049                 7.6294                30.5929

                     31                     32                     33
                      A                      A                      A
 Frequencies --    746.2356               758.2444               778.9662
 Red. masses --      2.6532                 7.4032                 1.6384
 Frc consts  --      0.8705                 2.5078                 0.5858
 IR Inten    --     54.9427                86.7755                69.5000

                     34                     35                     36
                      A                      A                      A
 Frequencies --    854.9127               926.1608               931.7640
 Red. masses --      1.2508                 3.3473                 1.3970
 Frc consts  --      0.5386                 1.6917                 0.7146
 IR Inten    --      0.3015               262.9608                 6.5121

                     37                     38                     39
                      A                      A                      A
 Frequencies --    945.4498               982.2192              1005.2341
 Red. masses --     10.0012                 1.3381                 8.3709
 Frc consts  --      5.2672                 0.7606                 4.9838
 IR Inten    --    136.5847                 0.1903                79.2695

                     40                     41                     42
                      A                      A                      A
 Frequencies --   1008.7947              1018.2520              1051.3229
 Red. masses --      1.2585                 5.9945                 2.7583
 Frc consts  --      0.7546                 3.6620                 1.7962
 IR Inten    --      0.4846                 6.3174                20.0221

                     43                     44                     45
                      A                      A                      A
 Frequencies --   1055.0764              1058.6396              1070.3396
 Red. masses --      1.5287                 3.1208                 3.0923
 Frc consts  --      1.0026                 2.0607                 2.0873
 IR Inten    --     23.0647               100.8603               221.7389

                     46                     47                     48
                      A                      A                      A
 Frequencies --   1098.2120              1112.4200              1122.5274
 Red. masses --      4.8494                 1.8725                 1.2373
 Frc consts  --      3.4460                 1.3652                 0.9186
 IR Inten    --    349.9092               146.7422                 9.1619

                     49                     50                     51
                      A                      A                      A
 Frequencies --   1174.7309              1188.2581              1200.6781
 Red. masses --      1.4269                 1.1090                 1.6884
 Frc consts  --      1.1602                 0.9226                 1.4341
 IR Inten    --     15.2462                 0.9314                62.4463

                     52                     53                     54
                      A                      A                      A
 Frequencies --   1203.3200              1213.9994              1226.8174
 Red. masses --      2.7713                 5.5705                 4.3938
 Frc consts  --      2.3643                 4.8371                 3.8963
 IR Inten    --    198.8005               231.8978                21.0841

                     55                     56                     57
                      A                      A                      A
 Frequencies --   1258.0674              1260.3015              1281.5190
 Red. masses --      2.8261                 1.9277                 4.5242
 Frc consts  --      2.6354                 1.8040                 4.3776
 IR Inten    --     45.0970                10.1604               261.3653

                     58                     59                     60
                      A                      A                      A
 Frequencies --   1336.4282              1365.6587              1376.8811
 Red. masses --      3.3949                 2.7512                 3.3904
 Frc consts  --      3.5725                 3.0231                 3.7870
 IR Inten    --     85.3258                 0.2949               270.6341

                     61                     62                     63
                      A                      A                      A
 Frequencies --   1433.8492              1449.8191              1452.6511
 Red. masses --      1.1501                 3.8921                 1.2218
 Frc consts  --      1.3931                 4.8202                 1.5191
 IR Inten    --      0.5223               150.1894                 6.3675

                     64                     65                     66
                      A                      A                      A
 Frequencies --   1498.1821              1509.4499              1511.4930
 Red. masses --      1.0506                 1.0738                 2.4376
 Frc consts  --      1.3893                 1.4415                 3.2811
 IR Inten    --     13.9497                 8.7684                24.9550

                     67                     68                     69
                      A                      A                      A
 Frequencies --   1515.0558              1525.9294              1545.1651
 Red. masses --      1.0468                 1.0481                 2.6953
 Frc consts  --      1.4157                 1.4379                 3.7915
 IR Inten    --      5.8980                15.2208               374.3095

                     70                     71                     72
                      A                      A                      A
 Frequencies --   1576.3309              1651.9336              1657.9214
 Red. masses --      6.1455                 6.3409                 5.6881
 Frc consts  --      8.9971                10.1950                 9.2119
 IR Inten    --    374.9280                 8.1978                47.2117

                     73                     74                     75
                      A                      A                      A
 Frequencies --   3018.8814              3026.1294              3115.4045
 Red. masses --      1.0521                 1.0502                 1.0857
 Frc consts  --      5.6494                 5.6664                 6.2087
 IR Inten    --     93.4053               123.5548                71.7542

                     76                     77                     78
                      A                      A                      A
 Frequencies --   3116.6269              3175.1322              3190.5895
 Red. masses --      1.0890                 1.1007                 1.0988
 Frc consts  --      6.2321                 6.5382                 6.5907
 IR Inten    --     17.3592                19.2225                13.5582

                     79                     80                     81
                      A                      A                      A
 Frequencies --   3210.2456              3218.5607              3229.3227
 Red. masses --      1.0860                 1.0899                 1.0942
 Frc consts  --      6.5942                 6.6522                 6.7232
 IR Inten    --      0.5326                21.8110                47.1945

                     82                     83                     84
                      A                      A                      A
 Frequencies --   3239.6137              3253.5464              3353.3824
 Red. masses --      1.0946                 1.0929                 1.0978
 Frc consts  --      6.7682                 6.8165                 7.2733
 IR Inten    --     11.2808                 2.8120                 7.3120

 - Thermochemistry -
 -------------------
 Temperature   298.150 Kelvin.  Pressure   1.00000 Atm.
 Atom     1 has atomic number  8 and mass  15.99491

 Molecular mass:   266.07117 amu.
 Principal axes and moments of inertia in atomic units:
                           1         2         3
     Eigenvalues --  2014.671509710.36867**********
           X            0.99909   0.03734  -0.02072
           Y           -0.02760   0.93490   0.35383
           Z            0.03259  -0.35293   0.93508
 This molecule is an asymmetric top.
 Rotational symmetry number  1.
 Warning -- assumption of classical behavior for rotation
           may cause significant error
 Rotational temperatures (Kelvin)      0.04299     0.00892     0.00833
 Rotational constants (GHZ):           0.89580     0.18586     0.17352
 Zero-point vibrational energy     597429.3 (Joules/Mol)
                                  142.78904 (Kcal/Mol)
 Warning -- explicit consideration of  24 degrees of freedom as
           vibrations may cause significant error
 Vibrational temperatures:     37.16    50.67    80.37    85.83   113.71
          (Kelvin)            128.00   230.06   262.10   309.03   313.44
                              336.70   391.07   408.11   479.20   491.63
                              526.88   582.37   600.84   604.74   657.15
                              704.03   725.33   765.08   836.30   904.70
                              924.74   959.92   996.19  1011.18  1016.13
                             1073.67  1090.94  1120.76  1230.03  1332.54
                             1340.60  1360.29  1413.19  1446.31  1451.43
                             1465.04  1512.62  1518.02  1523.15  1539.98
                             1580.08  1600.52  1615.07  1690.18  1709.64
                             1727.51  1731.31  1746.67  1765.12  1810.08
                             1813.29  1843.82  1922.82  1964.88  1981.02
                             2062.99  2085.97  2090.04  2155.55  2171.76
                             2174.70  2179.83  2195.47  2223.15  2267.99
                             2376.76  2385.38  4343.50  4353.93  4482.37
                             4484.13  4568.31  4590.55  4618.83  4630.79
                             4646.28  4661.08  4681.13  4824.77

 Zero-point correction=                           0.227549 (Hartree/Particle)
 Thermal correction to Energy=                    0.243841
 Thermal correction to Enthalpy=                  0.244785
 Thermal correction to Gibbs Free Energy=         0.181813
 Sum of electronic and zero-point Energies=          -1210.489392
 Sum of electronic and thermal Energies=             -1210.473100
 Sum of electronic and thermal Enthalpies=           -1210.472155
 Sum of electronic and thermal Free Energies=        -1210.535127

                     E (Thermal)             CV                S
                      KCal/Mol        Cal/Mol-Kelvin    Cal/Mol-Kelvin
 Total                  153.013             61.450            132.535
 Electronic               0.000              0.000              0.000
 Translational            0.889              2.981             42.635
 Rotational               0.889              2.981             33.675
 Vibrational            151.235             55.489             56.225
 Vibration     1          0.593              1.985              6.127
 Vibration     2          0.594              1.982              5.511
 Vibration     3          0.596              1.975              4.598
 Vibration     4          0.597              1.974              4.469
 Vibration     5          0.600              1.963              3.915
 Vibration     6          0.602              1.957              3.683
 Vibration     7          0.622              1.891              2.551
 Vibration     8          0.630              1.864              2.306
 Vibration     9          0.645              1.818              2.003
 Vibration    10          0.646              1.814              1.977
 Vibration    11          0.654              1.789              1.848
 Vibration    12          0.675              1.725              1.585
 Vibration    13          0.682              1.704              1.512
 Vibration    14          0.715              1.609              1.245
 Vibration    15          0.721              1.592              1.204
 Vibration    16          0.739              1.542              1.096
 Vibration    17          0.770              1.460              0.945
 Vibration    18          0.781              1.432              0.900
 Vibration    19          0.783              1.426              0.891
 Vibration    20          0.815              1.346              0.776
 Vibration    21          0.845              1.274              0.685
 Vibration    22          0.859              1.241              0.648
 Vibration    23          0.887              1.180              0.583
 Vibration    24          0.938              1.072              0.483

 Optimization completed.
    -- Stationary point found.
 Normal termination of Gaussian 16 at Thu Sep 24 17:17:50 2020.

 ----------------------------------------------------------------------
 #p b3lyp/6-31G(d) scrf=(iefpcm,read,solvent=water) geom=allcheck guess
 =read
 ----------------------------------------------------------------------

 Structure from the checkpoint file:  "SM46_m1.a.9.pdb.xyz.mst.a.w.chk"
 -------------------
 SM46_m1.a.9.pdb.xyz
 -------------------
 Charge = -1 Multiplicity = 1

 SCF Done:  E(RB3LYP) =  -1210.71691571     A.U. after    7 cycles
 Normal termination of Gaussian 16 at Thu Sep 24 17:18:28 2020.

 -----------------------------
 #p B3LYP/6-31G* geom=allcheck
 -----------------------------

 Structure from the checkpoint file:  "SM46_m1.a.9.pdb.xyz.mst.a.w.chk"
 -------------------
 SM46_m1.a.9.pdb.xyz
 -------------------
 Charge = -1 Multiplicity = 1

 SCF Done:  E(RB3LYP) =  -1210.61835122     A.U. after   15 cycles
 Normal termination of Gaussian 16 at Thu Sep 24 17:19:04 2020.
 Gaussian 16:  ES64L-G16RevB.01 20-Dec-2017

 ----------------------------------------------------------------------
 #p mp2/aug-cc-pVDZ scf=(MaxCycle=2000,NoVarAcc,NoIncFock) maxdisk=120G
 B geom=allcheck
 ----------------------------------------------------------------------

 Structure from the checkpoint file:  "SM46_m1.a.9.pdb.xyz.mst.a.w.chk"
 -------------------
 SM46_m1.a.9.pdb.xyz
 -------------------
 Charge = -1 Multiplicity = 1

                         Standard orientation:
 ---------------------------------------------------------------------
 Center     Atomic      Atomic             Coordinates (Angstroms)
 Number     Number       Type             X           Y           Z
 ---------------------------------------------------------------------
      1          8           0       -2.187729    1.110553   -1.450268
      2         16           0       -2.787473    0.046388   -0.602104
      3          7           0       -1.951911   -1.304051   -0.507261
      4          6           0       -0.583107   -1.201545   -0.325698
      5          7           0        0.130659   -2.347590   -0.060892
      6          7           0        1.403959   -2.055351    0.067761
      7          6           0        0.324268   -0.149255   -0.358905
      8          7           0        1.535784   -0.724551   -0.102751
      9          6           0        2.811964   -0.103816   -0.021812
     10          6           0        3.013491    1.148243   -0.609326
     11          6           0        4.265910    1.754243   -0.518009
     12          6           0        5.315503    1.113989    0.142871
     13          6           0        5.104713   -0.140586    0.720623
     14          6           0        3.854723   -0.752553    0.648233
     15          7           0       -2.745722    0.733569    0.978446
     16          6           0       -3.257720    2.108308    1.031696
     17          6           0       -3.360856   -0.122921    1.999116
     18          8           0       -4.186144   -0.316454   -0.942236
     19          1           0        0.193969    0.903888   -0.525066
     20          1           0        2.206128    1.637866   -1.140579
     21          1           0        4.419276    2.726147   -0.973875
     22          1           0        6.288793    1.588092    0.207960
     23          1           0        5.913093   -0.644359    1.239809
     24          1           0        3.676236   -1.718206    1.102815
     25          1           0       -2.759642    2.708294    0.272271
     26          1           0       -3.026590    2.516685    2.019008
     27          1           0       -4.345850    2.161507    0.879967
     28          1           0       -2.951583   -1.130221    1.924144
     29          1           0       -4.455106   -0.170480    1.906296
     30          1           0       -3.110892    0.286969    2.981087
 ---------------------------------------------------------------------

 SCF Done:  E(RHF) =  -1205.15362646     A.U. after   17 cycles
 E2 =    -0.2826205261D+01 EUMP2 =    -0.12079798317216D+04

 The electronic state is 1-A.
 Alpha  occ. eigenvalues --  -92.06191 -20.38836 -20.38330 -15.54850 -15.52159
 Alpha  occ. eigenvalues --  -15.47051 -15.45894 -15.38435 -11.21344 -11.17334
 Alpha  occ. eigenvalues --  -11.17263 -11.16631 -11.16550 -11.16461 -11.16253
 Alpha  occ. eigenvalues --  -11.14465 -11.14088 -11.13857  -9.02658  -6.71220
 Alpha  occ. eigenvalues --   -6.71156  -6.71118  -1.31331  -1.28695  -1.15718
 Alpha  occ. eigenvalues --   -1.12291  -1.09680  -1.06425  -1.04127  -0.94963
 Alpha  occ. eigenvalues --   -0.93800  -0.91785  -0.84256  -0.79187  -0.77951
 Alpha  occ. eigenvalues --   -0.76097  -0.70400  -0.68933  -0.64742  -0.62240
 Alpha  occ. eigenvalues --   -0.58907  -0.56642  -0.55426  -0.54271  -0.52604
 Alpha  occ. eigenvalues --   -0.52416  -0.51653  -0.51326  -0.49691  -0.48345
 Alpha  occ. eigenvalues --   -0.46914  -0.44328  -0.44140  -0.43426  -0.43015
 Alpha  occ. eigenvalues --   -0.42585  -0.40091  -0.38767  -0.36000  -0.34163
 Alpha  occ. eigenvalues --   -0.33368  -0.32625  -0.31444  -0.29624  -0.28926
 Alpha  occ. eigenvalues --   -0.26570  -0.25886  -0.25197  -0.23255  -0.15442
 Alpha virt. eigenvalues --    0.08905   0.10055   0.11064   0.11752   0.12916
 Alpha virt. eigenvalues --    0.13650   0.14025   0.14104   0.15770   0.15847
 Alpha virt. eigenvalues --    0.16593   0.17266   0.17796   0.17977   0.18536

 Mulliken charges:
               1
     1  O   -1.261403
     2  S    3.035082
     3  N   -1.182352
     4  C    0.453362
     5  N   -0.698669
     6  N   -0.478014
     7  C    1.154199
     8  N   -0.724282
     9  C    0.671990
    10  C    0.331583
    11  C    0.580139
    12  C    0.673395
    13  C    0.506527
    14  C    0.776779
    15  N   -1.070312
    16  C    0.754681
    17  C    0.725948
    18  O   -1.241880
    19  H   -0.671803
    20  H   -0.633555
    21  H   -0.466280
    22  H   -0.461987
    23  H   -0.456424
    24  H   -0.534274
    25  H   -0.160484
    26  H   -0.179830
    27  H   -0.057459
    28  H   -0.158482
    29  H   -0.044793
    30  H   -0.181400
 Sum of Mulliken charges =  -1.00000

 Dipole moment (field-independent basis, Debye):
    X=              9.4122    Y=              5.7002    Z=              4.8106  Tot=             12.0093
 Quadrupole moment (field-independent basis, Debye-Ang):
   XX=           -156.4992   YY=           -132.7369   ZZ=           -124.5881
   XY=             -1.7612   XZ=            -14.9423   YZ=             -2.1866

 Normal termination of Gaussian 16 at Thu Sep 24 17:46:06 2020.
