 Gaussian 16, Revision B.01,

 ----------------------------------------------------------------------
 #p b3lyp/6-31G(d) opt freq NoSymm scf=(MaxCycle=2000,NoVarAcc,NoIncFoc
 k) scrf=(iefpcm,read,solvent=water)
 ----------------------------------------------------------------------

 -------------------
 SM46_m2.b.5.pdb.xyz
 -------------------
 Symbolic Z-matrix:
 Charge =  1 Multiplicity = 1

 SCF Done:  E(RB3LYP) =  -1211.63433276     A.U. after   13 cycles
 SCF Done:  E(RB3LYP) =  -1211.63408414     A.U. after   10 cycles
 SCF Done:  E(RB3LYP) =  -1211.63417583     A.U. after    9 cycles
 SCF Done:  E(RB3LYP) =  -1211.63432871     A.U. after   10 cycles
 SCF Done:  E(RB3LYP) =  -1211.63433462     A.U. after    8 cycles
 SCF Done:  E(RB3LYP) =  -1211.63409975     A.U. after   10 cycles
 SCF Done:  E(RB3LYP) =  -1211.63413169     A.U. after    8 cycles
 SCF Done:  E(RB3LYP) =  -1211.63432610     A.U. after   10 cycles
 SCF Done:  E(RB3LYP) =  -1211.63433441     A.U. after    9 cycles
 SCF Done:  E(RB3LYP) =  -1211.63433464     A.U. after    7 cycles
 SCF Done:  E(RB3LYP) =  -1211.63433406     A.U. after    9 cycles
 SCF Done:  E(RB3LYP) =  -1211.63410978     A.U. after   10 cycles
 SCF Done:  E(RB3LYP) =  -1211.63412190     A.U. after    7 cycles
 SCF Done:  E(RB3LYP) =  -1211.63432432     A.U. after   10 cycles
 SCF Done:  E(RB3LYP) =  -1211.63433406     A.U. after    9 cycles
 SCF Done:  E(RB3LYP) =  -1211.63411854     A.U. after   10 cycles
 Optimization completed.
    -- Stationary point found.
 Normal termination of Gaussian 16 at Thu Sep 24 16:59:23 2020.

 --------------------------------------------------------------------
 #P Geom=AllCheck Guess=TCheck SCRF=Check GenChk RB3LYP/6-31G(d) Freq
 --------------------------------------------------------------------

 Structure from the checkpoint file:  "SM46_m2.b.5.pdb.xyz.mst.b.w.chk"
 -------------------
 SM46_m2.b.5.pdb.xyz
 -------------------
 Charge =  1 Multiplicity = 1

 SCF Done:  E(RB3LYP) =  -1211.63411854     A.U. after    1 cycles

  Exact polarizability: 295.797 -27.409 164.251 -10.355 -45.121 173.728
 Approx polarizability: 306.534 -29.829 201.287  -9.884 -58.448 210.843

                      1                      2                      3
                      A                      A                      A
 Frequencies --     22.1981                34.1002                50.0796
 Red. masses --      4.9913                 4.0050                 3.8037
 Frc consts  --      0.0014                 0.0027                 0.0056
 IR Inten    --      3.9002                 1.3566                 0.1372

                      4                      5                      6
                      A                      A                      A
 Frequencies --     61.9702                73.9554                98.1441
 Red. masses --      4.9339                 4.2946                 4.4344
 Frc consts  --      0.0112                 0.0138                 0.0252
 IR Inten    --      1.6439                 3.7271                 0.7517

                      7                      8                      9
                      A                      A                      A
 Frequencies --    139.4713               162.7902               190.8069
 Red. masses --      3.2414                 3.7098                 1.2075
 Frc consts  --      0.0371                 0.0579                 0.0259
 IR Inten    --      7.8777                 9.5766                 3.8507

                     10                     11                     12
                      A                      A                      A
 Frequencies --    199.6749               229.1385               249.6153
 Red. masses --      1.4170                 2.9040                 5.7939
 Frc consts  --      0.0333                 0.0898                 0.2127
 IR Inten    --      0.3625                10.9063                 5.0878

                     13                     14                     15
                      A                      A                      A
 Frequencies --    285.2959               313.7210               334.2860
 Red. masses --      6.1307                 4.6258                 4.2526
 Frc consts  --      0.2940                 0.2682                 0.2800
 IR Inten    --      1.7239                21.2439                16.6861

                     16                     17                     18
                      A                      A                      A
 Frequencies --    353.3376               367.4609               379.9095
 Red. masses --      2.9270                 5.0701                 5.1443
 Frc consts  --      0.2153                 0.4034                 0.4375
 IR Inten    --      8.4185                 0.3424                 1.0510

                     19                     20                     21
                      A                      A                      A
 Frequencies --    419.2693               454.3391               476.9690
 Red. masses --      3.0252                 6.1146                 4.6835
 Frc consts  --      0.3133                 0.7437                 0.6278
 IR Inten    --      0.0920                35.1982                26.1494

                     22                     23                     24
                      A                      A                      A
 Frequencies --    487.7569               510.4552               539.6990
 Red. masses --      3.5732                 2.7991                 3.0243
 Frc consts  --      0.5009                 0.4297                 0.5190
 IR Inten    --      9.4216               165.6269                30.2159

                     25                     26                     27
                      A                      A                      A
 Frequencies --    571.5388               626.5374               658.5799
 Red. masses --      7.3153                 6.3894                 1.4919
 Frc consts  --      1.4079                 1.4778                 0.3812
 IR Inten    --    137.3182                 0.7810               104.7169

                     28                     29                     30
                      A                      A                      A
 Frequencies --    670.1976               686.6486               699.9285
 Red. masses --      2.9226                 6.1627                 2.5553
 Frc consts  --      0.7734                 1.7120                 0.7376
 IR Inten    --     33.1193                87.7186                66.7969

                     31                     32                     33
                      A                      A                      A
 Frequencies --    704.1934               707.2096               777.8962
 Red. masses --      3.0683                 6.2871                 1.6155
 Frc consts  --      0.8965                 1.8527                 0.5760
 IR Inten    --      0.7731               208.1107                86.3138

                     34                     35                     36
                      A                      A                      A
 Frequencies --    790.3842               802.7750               850.0412
 Red. masses --      2.2624                 1.9933                 4.9019
 Frc consts  --      0.8327                 0.7568                 2.0869
 IR Inten    --     40.9617                25.5214               342.6671

                     37                     38                     39
                      A                      A                      A
 Frequencies --    857.7021               947.4927               948.9406
 Red. masses --      1.2784                 3.1094                 1.3631
 Frc consts  --      0.5541                 1.6447                 0.7232
 IR Inten    --      6.1575               225.3389                 7.2470

                     40                     41                     42
                      A                      A                      A
 Frequencies --    989.3215              1009.5923              1017.7002
 Red. masses --      1.3439                 7.9489                 1.2845
 Frc consts  --      0.7750                 4.7737                 0.7839
 IR Inten    --      0.6221                12.4287                 0.3290

                     43                     44                     45
                      A                      A                      A
 Frequencies --   1023.2621              1053.1679              1067.7291
 Red. masses --      6.3895                 2.1438                 2.1381
 Frc consts  --      3.9418                 1.4010                 1.4361
 IR Inten    --      0.5730                 3.7332                94.4288

                     46                     47                     48
                      A                      A                      A
 Frequencies --   1070.7961              1105.7009              1111.0895
 Red. masses --      1.6108                 4.0037                 1.5708
 Frc consts  --      1.0882                 2.8839                 1.1426
 IR Inten    --     17.2789                94.7003                34.8315

                     49                     50                     51
                      A                      A                      A
 Frequencies --   1117.1874              1131.1446              1173.4428
 Red. masses --      5.5429                 1.2590                 1.3532
 Frc consts  --      4.0760                 0.9491                 1.0978
 IR Inten    --    173.2625                 5.3151                 1.8447

                     52                     53                     54
                      A                      A                      A
 Frequencies --   1193.7021              1202.4579              1212.0600
 Red. masses --      1.0997                 1.1686                 2.2806
 Frc consts  --      0.9232                 0.9955                 1.9740
 IR Inten    --      0.7878                 3.8511               108.9648

                     55                     56                     57
                      A                      A                      A
 Frequencies --   1221.3155              1234.9739              1284.1990
 Red. masses --      3.3590                 2.6651                 2.3922
 Frc consts  --      2.9520                 2.3949                 2.3244
 IR Inten    --     27.2753                 5.8598               112.6574

                     58                     59                     60
                      A                      A                      A
 Frequencies --   1293.4947              1329.4242              1346.5560
 Red. masses --      4.0821                 3.8363                 1.7440
 Frc consts  --      4.0240                 3.9947                 1.8631
 IR Inten    --    190.4914               139.3667                 5.3536

                     61                     62                     63
                      A                      A                      A
 Frequencies --   1368.2325              1400.8701              1435.3801
 Red. masses --      4.2261                 2.6723                 2.4737
 Frc consts  --      4.6613                 3.0898                 3.0028
 IR Inten    --      4.0129                 3.6697               107.8812

                     64                     65                     66
                      A                      A                      A
 Frequencies --   1456.7499              1459.9718              1476.5686
 Red. masses --      1.1377                 2.9672                 1.1475
 Frc consts  --      1.4225                 3.7264                 1.4740
 IR Inten    --      0.4862                15.7448                 3.8407

                     67                     68                     69
                      A                      A                      A
 Frequencies --   1503.2117              1506.1961              1515.3299
 Red. masses --      1.0507                 2.2053                 1.0485
 Frc consts  --      1.3988                 2.9477                 1.4185
 IR Inten    --      7.0063                14.4548                17.1751

                     70                     71                     72
                      A                      A                      A
 Frequencies --   1516.3595              1531.4731              1533.5508
 Red. masses --      1.0622                 1.8042                 1.3154
 Frc consts  --      1.4390                 2.4932                 1.8227
 IR Inten    --     34.8493                84.6543                66.9166

                     73                     74                     75
                      A                      A                      A
 Frequencies --   1542.8456              1650.4052              1655.4112
 Red. masses --      2.4662                 5.7602                 5.6624
 Frc consts  --      3.4588                 9.2442                 9.1424
 IR Inten    --     23.6448               327.1645                67.6718

                     76                     77                     78
                      A                      A                      A
 Frequencies --   1664.9487              3071.2331              3074.5224
 Red. masses --      5.8357                 1.0410                 1.0407
 Frc consts  --      9.5312                 5.7853                 5.7962
 IR Inten    --    283.9288                40.1274                74.2070

                     79                     80                     81
                      A                      A                      A
 Frequencies --   3155.2558              3157.1639              3190.9357
 Red. masses --      1.0968                 1.0989                 1.1049
 Frc consts  --      6.4336                 6.4537                 6.6287
 IR Inten    --     44.4976                 0.9147                13.5180

                     82                     83                     84
                      A                      A                      A
 Frequencies --   3212.7948              3221.0182              3230.4343
 Red. masses --      1.1025                 1.0868                 1.0900
 Frc consts  --      6.7048                 6.6434                 6.7016
 IR Inten    --      4.6452                 0.4006                12.5519

                     85                     86                     87
                      A                      A                      A
 Frequencies --   3237.6012              3246.7811              3256.2271
 Red. masses --      1.0934                 1.0962                 1.0941
 Frc consts  --      6.7530                 6.8087                 6.8347
 IR Inten    --     28.4528                 9.2051                 1.2188

                     88                     89                     90
                      A                      A                      A
 Frequencies --   3384.1961              3511.3641              3522.3143
 Red. masses --      1.1006                 1.0776                 1.0868
 Frc consts  --      7.4265                 7.8282                 7.9444
 IR Inten    --     36.0765               142.4923               676.7558

 - Thermochemistry -
 -------------------
 Temperature   298.150 Kelvin.  Pressure   1.00000 Atm.
 Atom     1 has atomic number  8 and mass  15.99491

 Molecular mass:   268.08682 amu.
 Principal axes and moments of inertia in atomic units:
                           1         2         3
     Eigenvalues --  1637.65793********************
           X            0.99887  -0.01923   0.04353
           Y           -0.01471   0.74511   0.66678
           Z           -0.04525  -0.66667   0.74398
 This molecule is an asymmetric top.
 Rotational symmetry number  1.
 Warning -- assumption of classical behavior for rotation
           may cause significant error
 Rotational temperatures (Kelvin)      0.05289     0.00777     0.00737
 Rotational constants (GHZ):           1.10203     0.16197     0.15347
 Zero-point vibrational energy     667589.1 (Joules/Mol)
                                  159.55761 (Kcal/Mol)
 Warning -- explicit consideration of  25 degrees of freedom as
           vibrations may cause significant error
 Vibrational temperatures:     31.94    49.06    72.05    89.16   106.41
          (Kelvin)            141.21   200.67   234.22   274.53   287.29
                              329.68   359.14   410.48   451.37   480.96
                              508.37   528.69   546.61   603.23   653.69
                              686.25   701.77   734.43   776.51   822.32
                              901.45   947.55   964.26   987.93  1007.04
                             1013.18  1017.52  1119.22  1137.19  1155.01
                             1223.02  1234.04  1363.23  1365.31  1423.41
                             1452.58  1464.24  1472.25  1515.27  1536.22
                             1540.64  1590.86  1598.61  1607.38  1627.46
                             1688.32  1717.47  1730.07  1743.88  1757.20
                             1776.85  1847.68  1861.05  1912.74  1937.39
                             1968.58  2015.54  2065.19  2095.94  2100.57
                             2124.45  2162.79  2167.08  2180.22  2181.70
                             2203.45  2206.44  2219.81  2374.57  2381.77
                             2395.49  4418.82  4423.55  4539.71  4542.45
                             4591.04  4622.50  4634.33  4647.87  4658.19
                             4671.39  4684.98  4869.10  5052.07  5067.82

 Zero-point correction=                           0.254271 (Hartree/Particle)
 Thermal correction to Energy=                    0.271181
 Thermal correction to Enthalpy=                  0.272126
 Thermal correction to Gibbs Free Energy=         0.207756
 Sum of electronic and zero-point Energies=          -1211.379847
 Sum of electronic and thermal Energies=             -1211.362937
 Sum of electronic and thermal Enthalpies=           -1211.361993
 Sum of electronic and thermal Free Energies=        -1211.426363

                     E (Thermal)             CV                S
                      KCal/Mol        Cal/Mol-Kelvin    Cal/Mol-Kelvin
 Total                  170.169             63.803            135.478
 Electronic               0.000              0.000              0.000
 Translational            0.889              2.981             42.657
 Rotational               0.889              2.981             33.728
 Vibrational            168.391             57.841             59.092
 Vibration     1          0.593              1.985              6.427
 Vibration     2          0.594              1.983              5.575
 Vibration     3          0.595              1.978              4.814
 Vibration     4          0.597              1.972              4.393
 Vibration     5          0.599              1.966              4.045
 Vibration     6          0.604              1.950              3.491
 Vibration     7          0.615              1.914              2.811
 Vibration     8          0.623              1.888              2.517
 Vibration     9          0.634              1.853              2.220
 Vibration    10          0.638              1.840              2.136
 Vibration    11          0.652              1.797              1.886
 Vibration    12          0.662              1.763              1.733
 Vibration    13          0.683              1.701              1.502
 Vibration    14          0.702              1.647              1.343
 Vibration    15          0.716              1.607              1.239
 Vibration    16          0.730              1.568              1.151
 Vibration    17          0.740              1.539              1.090
 Vibration    18          0.750              1.513              1.040
 Vibration    19          0.782              1.428              0.894
 Vibration    20          0.813              1.351              0.783
 Vibration    21          0.834              1.301              0.718
 Vibration    22          0.844              1.277              0.689
 Vibration    23          0.866              1.227              0.632
 Vibration    24          0.895              1.162              0.566
 Vibration    25          0.928              1.093              0.501

                           ! Non-Optimized Parameters !
 Normal termination of Gaussian 16 at Thu Sep 24 17:07:14 2020.

 ----------------------------------------------------------------------
 #p b3lyp/6-31G(d) scrf=(iefpcm,read,solvent=water) geom=allcheck guess
 =read
 ----------------------------------------------------------------------

 Structure from the checkpoint file:  "SM46_m2.b.5.pdb.xyz.mst.b.w.chk"
 -------------------
 SM46_m2.b.5.pdb.xyz
 -------------------
 Charge =  1 Multiplicity = 1

 SCF Done:  E(RB3LYP) =  -1211.63414645     A.U. after    7 cycles
 Normal termination of Gaussian 16 at Thu Sep 24 17:07:45 2020.

 -----------------------------
 #p B3LYP/6-31G* geom=allcheck
 -----------------------------

 Structure from the checkpoint file:  "SM46_m2.b.5.pdb.xyz.mst.b.w.chk"
 -------------------
 SM46_m2.b.5.pdb.xyz
 -------------------
 Charge =  1 Multiplicity = 1

 SCF Done:  E(RB3LYP) =  -1211.53635898     A.U. after   15 cycles
 Normal termination of Gaussian 16 at Thu Sep 24 17:08:21 2020.
 Gaussian 16:  ES64L-G16RevB.01 20-Dec-2017

 ----------------------------------------------------------------------
 #p mp2/aug-cc-pVDZ scf=(MaxCycle=2000,NoVarAcc,NoIncFock) maxdisk=120G
 B geom=allcheck
 ----------------------------------------------------------------------

 Structure from the checkpoint file:  "SM46_m2.b.5.pdb.xyz.mst.b.w.chk"
 -------------------
 SM46_m2.b.5.pdb.xyz
 -------------------
 Charge =  1 Multiplicity = 1

                         Standard orientation:
 ---------------------------------------------------------------------
 Center     Atomic      Atomic             Coordinates (Angstroms)
 Number     Number       Type             X           Y           Z
 ---------------------------------------------------------------------
      1          8           0        3.079411    0.574400    1.785618
      2         16           0        2.664401   -0.121882    0.568678
      3          7           0        1.758443    0.909202   -0.448188
      4          6           0        0.381912    0.937014   -0.382081
      5          7           0       -0.339134    2.059963   -0.632858
      6          7           0       -1.645565    1.867242   -0.579176
      7          6           0       -0.566506   -0.039134   -0.133146
      8          7           0       -1.765136    0.594800   -0.260203
      9          6           0       -3.069328    0.026041   -0.082929
     10          6           0       -3.262317   -1.325131   -0.366162
     11          6           0       -4.531182   -1.870653   -0.180963
     12          6           0       -5.583307   -1.070820    0.268864
     13          6           0       -5.369090    0.282602    0.540474
     14          6           0       -4.104979    0.842162    0.371651
     15          7           0        3.994558   -0.277409   -0.403971
     16          6           0        5.283948   -0.466870    0.286600
     17          6           0        3.804781   -1.117605   -1.597108
     18          8           0        1.839016   -1.328532    0.686985
     19          1           0        2.216003    1.807477   -0.615020
     20          1           0       -0.459846   -1.069613    0.145725
     21          1           0       -2.447229   -1.934067   -0.737958
     22          1           0       -4.695569   -2.919577   -0.398533
     23          1           0       -6.568508   -1.501413    0.407817
     24          1           0       -6.182974    0.904758    0.894628
     25          1           0       -3.916872    1.884493    0.593496
     26          1           0        5.354449    0.226089    1.121747
     27          1           0        6.066110   -0.237180   -0.438115
     28          1           0        5.414812   -1.494518    0.641349
     29          1           0        2.870483   -0.851580   -2.090177
     30          1           0        3.804090   -2.184493   -1.352325
     31          1           0        4.630693   -0.903945   -2.276574
     32          1           0        0.010777    2.994509   -0.856160
 ---------------------------------------------------------------------

 SCF Done:  E(RHF) =  -1206.06496812     A.U. after   17 cycles
 E2 =    -0.2801145361D+01 EUMP2 =    -0.12088661134801D+04

 The electronic state is 1-A.
 Alpha  occ. eigenvalues --  -92.38519 -20.69830 -20.69327 -15.88819 -15.87175
 Alpha  occ. eigenvalues --  -15.85915 -15.78913 -15.73926 -11.53311 -11.46260
 Alpha  occ. eigenvalues --  -11.43712 -11.39102 -11.38818 -11.38419 -11.38212
 Alpha  occ. eigenvalues --  -11.37264 -11.37164 -11.37060  -9.34926  -7.03468
 Alpha  occ. eigenvalues --   -7.03448  -7.03379  -1.67380  -1.60779  -1.47677
 Alpha  occ. eigenvalues --   -1.46942  -1.41669  -1.37858  -1.29483  -1.28222
 Alpha  occ. eigenvalues --   -1.18907  -1.15819  -1.10254  -1.09330  -1.08536
 Alpha  occ. eigenvalues --   -1.04879  -0.98317  -0.96814  -0.95630  -0.93732
 Alpha  occ. eigenvalues --   -0.87731  -0.87256  -0.86599  -0.85906  -0.82959
 Alpha  occ. eigenvalues --   -0.80959  -0.80164  -0.79043  -0.76463  -0.75694
 Alpha  occ. eigenvalues --   -0.74198  -0.73264  -0.72757  -0.71626  -0.70284
 Alpha  occ. eigenvalues --   -0.69296  -0.67897  -0.66967  -0.65426  -0.64757
 Alpha  occ. eigenvalues --   -0.64435  -0.63340  -0.62727  -0.62116  -0.61356
 Alpha  occ. eigenvalues --   -0.60112  -0.53007  -0.51415  -0.47070  -0.46826
 Alpha virt. eigenvalues --   -0.08736  -0.07984  -0.05391  -0.04962  -0.03822
 Alpha virt. eigenvalues --   -0.03519  -0.03190  -0.02745  -0.02080  -0.01796
 Alpha virt. eigenvalues --   -0.01684  -0.01537  -0.00601  -0.00309  -0.00150

 Mulliken charges:
               1
     1  O   -1.118381
     2  S    3.445536
     3  N   -0.904952
     4  C    0.249210
     5  N   -0.339328
     6  N   -0.294090
     7  C    1.389459
     8  N   -0.629905
     9  C    0.830808
    10  C    0.366348
    11  C    0.579057
    12  C    0.681030
    13  C    0.445607
    14  C    0.750606
    15  N   -1.174538
    16  C    0.803875
    17  C    0.726914
    18  O   -1.185334
    19  H   -0.074089
    20  H   -0.577101
    21  H   -0.627905
    22  H   -0.421454
    23  H   -0.416304
    24  H   -0.413107
    25  H   -0.516187
    26  H   -0.133123
    27  H   -0.115141
    28  H   -0.011706
    29  H   -0.142037
    30  H   -0.023476
    31  H   -0.152375
    32  H    0.002083
 Sum of Mulliken charges =   1.00000

 Dipole moment (field-independent basis, Debye):
    X=             -1.1994    Y=              2.9896    Z=             -4.5797  Tot=              5.5991
 Quadrupole moment (field-independent basis, Debye-Ang):
   XX=            -37.9093   YY=            -88.4547   ZZ=           -115.6804
   XY=              3.7073   XZ=            -15.2275   YZ=             -0.9407

 Normal termination of Gaussian 16 at Thu Sep 24 17:39:31 2020.
