 Gaussian 16, Revision B.01,

 ----------------------------------------------------------------------
 #p b3lyp/6-31G(d) opt freq NoSymm scf=(MaxCycle=2000,NoVarAcc,NoIncFoc
 k) scrf=(iefpcm,read,solvent=water) MaxDisk=20GB
 ----------------------------------------------------------------------

 --------------------
 SM46_m0.n.10.pdb.xyz
 --------------------
 Symbolic Z-matrix:
 Charge =  0 Multiplicity = 1

 SCF Done:  E(RB3LYP) =  -1211.18786009     A.U. after   13 cycles
 SCF Done:  E(RB3LYP) =  -1211.18784988     A.U. after    9 cycles
 SCF Done:  E(RB3LYP) =  -1211.18785379     A.U. after    8 cycles
 SCF Done:  E(RB3LYP) =  -1211.18786906     A.U. after    9 cycles
 SCF Done:  E(RB3LYP) =  -1211.18786462     A.U. after    9 cycles
 SCF Done:  E(RB3LYP) =  -1211.18786416     A.U. after    8 cycles
 SCF Done:  E(RB3LYP) =  -1211.18787193     A.U. after    9 cycles
 SCF Done:  E(RB3LYP) =  -1211.18786190     A.U. after    9 cycles
 SCF Done:  E(RB3LYP) =  -1211.18786071     A.U. after    8 cycles
 SCF Done:  E(RB3LYP) =  -1211.18787135     A.U. after    9 cycles
 SCF Done:  E(RB3LYP) =  -1211.18787168     A.U. after    8 cycles
 SCF Done:  E(RB3LYP) =  -1211.18786097     A.U. after   10 cycles
 SCF Done:  E(RB3LYP) =  -1211.18786062     A.U. after    7 cycles
 SCF Done:  E(RB3LYP) =  -1211.18787105     A.U. after   10 cycles
 SCF Done:  E(RB3LYP) =  -1211.18787165     A.U. after    8 cycles
 SCF Done:  E(RB3LYP) =  -1211.18785990     A.U. after   10 cycles
 Optimization completed.
    -- Stationary point found.
 Normal termination of Gaussian 16 at Mon Sep 14 02:45:02 2020.

 --------------------------------------------------------------------
 #P Geom=AllCheck Guess=TCheck SCRF=Check GenChk RB3LYP/6-31G(d) Freq
 --------------------------------------------------------------------

 Structure from the checkpoint file:  "SM46_m0.n.10.pdb.xyz.mst.n.w.chk"
 --------------------
 SM46_m0.n.10.pdb.xyz
 --------------------
 Charge =  0 Multiplicity = 1

 SCF Done:  E(RB3LYP) =  -1211.18785990     A.U. after    1 cycles

  Exact polarizability: 291.927   5.463 214.491 -24.798   9.336 125.906
 Approx polarizability: 307.281   1.812 262.971 -33.465   9.506 150.738

                      1                      2                      3
                      A                      A                      A
 Frequencies --     19.0749                40.2869                44.2307
 Red. masses --      5.2158                 4.9518                 4.6528
 Frc consts  --      0.0011                 0.0047                 0.0054
 IR Inten    --      6.4605                 1.3528                 5.0408

                      4                      5                      6
                      A                      A                      A
 Frequencies --     74.2198                85.6321               103.8393
 Red. masses --      3.3644                 4.7235                 4.8719
 Frc consts  --      0.0109                 0.0204                 0.0310
 IR Inten    --      0.6045                13.1778                 2.6157

                      7                      8                      9
                      A                      A                      A
 Frequencies --    110.6338               181.2890               210.3129
 Red. masses --      6.7867                 1.8717                 1.3776
 Frc consts  --      0.0489                 0.0362                 0.0359
 IR Inten    --      3.1006                 6.2129                 2.9537

                     10                     11                     12
                      A                      A                      A
 Frequencies --    221.8078               239.1945               252.2592
 Red. masses --      1.7366                 2.4998                 5.3842
 Frc consts  --      0.0503                 0.0843                 0.2019
 IR Inten    --      0.6983                 4.2951                 1.9318

                     13                     14                     15
                      A                      A                      A
 Frequencies --    274.7414               317.0851               345.9937
 Red. masses --      6.6188                 4.0478                 6.3143
 Frc consts  --      0.2944                 0.2398                 0.4454
 IR Inten    --      2.6029                11.1465                 7.8032

                     16                     17                     18
                      A                      A                      A
 Frequencies --    363.1900               390.4272               419.7805
 Red. masses --      2.8637                 7.6992                 3.0384
 Frc consts  --      0.2226                 0.6915                 0.3155
 IR Inten    --      2.6840                 4.7881                 0.0754

                     19                     20                     21
                      A                      A                      A
 Frequencies --    424.7093               466.2272               484.2908
 Red. masses --      4.2405                 5.4815                 5.2246
 Frc consts  --      0.4507                 0.7020                 0.7220
 IR Inten    --     13.3881                33.3553                 2.7849

                     22                     23                     24
                      A                      A                      A
 Frequencies --    491.6772               523.4350               543.4883
 Red. masses --      2.2207                 3.7919                 5.2489
 Frc consts  --      0.3163                 0.6121                 0.9135
 IR Inten    --     85.3040                69.2409                63.5259

                     25                     26                     27
                      A                      A                      A
 Frequencies --    583.9712               628.0581               652.8871
 Red. masses --      5.6838                 6.3817                 4.4703
 Frc consts  --      1.1420                 1.4832                 1.1227
 IR Inten    --    146.4371                 0.5555                46.9756

                     28                     29                     30
                      A                      A                      A
 Frequencies --    675.8255               698.6185               706.2040
 Red. masses --      4.4831                 5.7701                 2.3783
 Frc consts  --      1.2064                 1.6593                 0.6988
 IR Inten    --     69.0835                19.4951                33.9858

                     31                     32                     33
                      A                      A                      A
 Frequencies --    723.9546               778.6331               797.2122
 Red. masses --      8.2917                 1.6144                 1.8243
 Frc consts  --      2.5605                 0.5767                 0.6831
 IR Inten    --     43.4645                81.6303                28.3490

                     34                     35                     36
                      A                      A                      A
 Frequencies --    831.0951               856.9069               878.4240
 Red. masses --      3.0436                 1.2483                 3.6139
 Frc consts  --      1.2386                 0.5401                 1.6430
 IR Inten    --      2.0127                 1.6890               255.9300

                     37                     38                     39
                      A                      A                      A
 Frequencies --    939.1238               947.2325               983.9648
 Red. masses --      1.3868                 3.2088                 1.3431
 Frc consts  --      0.7206                 1.6963                 0.7662
 IR Inten    --      6.3354               227.0765                 0.2584

                     40                     41                     42
                      A                      A                      A
 Frequencies --   1006.3654              1011.6809              1020.7412
 Red. masses --      7.6787                 1.2691                 6.1288
 Frc consts  --      4.5819                 0.7653                 3.7624
 IR Inten    --     23.4940                 0.4622                 0.7071

                     43                     44                     45
                      A                      A                      A
 Frequencies --   1047.6784              1062.6260              1067.6477
 Red. masses --      3.4657                 2.1748                 3.7688
 Frc consts  --      2.2413                 1.4469                 2.5311
 IR Inten    --      3.0933                36.1058               107.4452

                     46                     47                     48
                      A                      A                      A
 Frequencies --   1070.4620              1101.8160              1108.3327
 Red. masses --      1.6032                11.7064                 1.5493
 Frc consts  --      1.0824                 8.3732                 1.1213
 IR Inten    --     23.8531               332.6354                 6.7128

                     49                     50                     51
                      A                      A                      A
 Frequencies --   1131.1199              1178.6957              1189.4275
 Red. masses --      1.2299                 1.3792                 1.1046
 Frc consts  --      0.9271                 1.1289                 0.9208
 IR Inten    --      4.5975                 4.6948                 0.0538

                     52                     53                     54
                      A                      A                      A
 Frequencies --   1198.1088              1219.3897              1228.8482
 Red. masses --      1.1747                 3.3138                 3.4580
 Frc consts  --      0.9935                 2.9031                 3.0766
 IR Inten    --      0.4729                28.3998                23.1215

                     55                     56                     57
                      A                      A                      A
 Frequencies --   1235.7930              1275.7663              1285.9835
 Red. masses --      2.2034                 4.6557                 2.5287
 Frc consts  --      1.9826                 4.4646                 2.4639
 IR Inten    --      4.4259               239.8645                93.2398

                     58                     59                     60
                      A                      A                      A
 Frequencies --   1301.5600              1344.1727              1365.9790
 Red. masses --      8.6509                 2.3014                 2.6394
 Frc consts  --      8.6346                 2.4499                 2.9016
 IR Inten    --    176.9129                31.4824                 3.4135

                     61                     62                     63
                      A                      A                      A
 Frequencies --   1383.1074              1425.1507              1457.2265
 Red. masses --      3.2584                 2.0396                 1.1391
 Frc consts  --      3.6726                 2.4408                 1.4252
 IR Inten    --     88.0889                34.3441                 0.2612

                     64                     65                     66
                      A                      A                      A
 Frequencies --   1478.2615              1484.0119              1507.1496
 Red. masses --      1.1934                 2.4243                 1.0468
 Frc consts  --      1.5365                 3.1457                 1.4010
 IR Inten    --      2.9418                21.1971                10.9480

                     67                     68                     69
                      A                      A                      A
 Frequencies --   1514.9362              1518.3822              1520.2159
 Red. masses --      2.5651                 1.0466                 1.0587
 Frc consts  --      3.4685                 1.4217                 1.4415
 IR Inten    --     12.7255                12.3185                24.3081

                     70                     71                     72
                      A                      A                      A
 Frequencies --   1532.2724              1549.9639              1593.3323
 Red. masses --      1.0492                 2.7939                 6.4225
 Frc consts  --      1.4514                 3.9547                 9.6066
 IR Inten    --     14.3376               130.4214                84.2755

                     73                     74                     75
                      A                      A                      A
 Frequencies --   1655.8014              1658.9110              3057.4244
 Red. masses --      6.4460                 5.7396                 1.0462
 Frc consts  --     10.4125                 9.3064                 5.7618
 IR Inten    --      6.8967                27.2239                69.4237

                     76                     77                     78
                      A                      A                      A
 Frequencies --   3064.8855              3147.0725              3149.6329
 Red. masses --      1.0422                 1.0918                 1.0960
 Frc consts  --      5.7681                 6.3711                 6.4056
 IR Inten    --     73.0294                44.4645                 7.6036

                     79                     80                     81
                      A                      A                      A
 Frequencies --   3191.8426              3205.5397              3214.7879
 Red. masses --      1.1038                 1.1020                 1.0862
 Frc consts  --      6.6259                 6.6719                 6.6143
 IR Inten    --     10.6550                 7.3129                 0.1669

                     82                     83                     84
                      A                      A                      A
 Frequencies --   3223.0403              3232.2560              3240.5082
 Red. masses --      1.0898                 1.0935                 1.0960
 Frc consts  --      6.6702                 6.7311                 6.7808
 IR Inten    --     17.1099                40.3148                13.2488

                     85                     86                     87
                      A                      A                      A
 Frequencies --   3255.2371              3337.7190              3539.2502
 Red. masses --      1.0934                 1.1005                 1.0762
 Frc consts  --      6.8262                 7.2234                 7.9429
 IR Inten    --      2.3902                 8.0856               169.6413

 - Thermochemistry -
 -------------------
 Temperature   298.150 Kelvin.  Pressure   1.00000 Atm.
 Atom     1 has atomic number  8 and mass  15.99491

 Molecular mass:   267.07900 amu.
 Principal axes and moments of inertia in atomic units:
                           1         2         3
     Eigenvalues --  1570.44438********************
           X            0.99995   0.00793  -0.00671
           Y           -0.00759   0.99875   0.04935
           Z            0.00709  -0.04929   0.99876
 This molecule is an asymmetric top.
 Rotational symmetry number  1.
 Warning -- assumption of classical behavior for rotation
           may cause significant error
 Rotational temperatures (Kelvin)      0.05515     0.00781     0.00749
 Rotational constants (GHZ):           1.14919     0.16275     0.15600
 Zero-point vibrational energy     633423.0 (Joules/Mol)
                                  151.39172 (Kcal/Mol)
 Warning -- explicit consideration of  25 degrees of freedom as
           vibrations may cause significant error
 Vibrational temperatures:     27.44    57.96    63.64   106.79   123.21
          (Kelvin)            149.40   159.18   260.83   302.59   319.13
                              344.15   362.94   395.29   456.21   497.81
                              522.55   561.74   603.97   611.06   670.80
                              696.79   707.41   753.11   781.96   840.20
                              903.64   939.36   972.36  1005.16  1016.07
                             1041.61  1120.28  1147.01  1195.76  1232.90
                             1263.86  1351.19  1362.86  1415.71  1447.94
                             1455.58  1468.62  1507.38  1528.88  1536.11
                             1540.16  1585.27  1594.64  1627.43  1695.88
                             1711.32  1723.81  1754.43  1768.04  1778.03
                             1835.54  1850.24  1872.65  1933.96  1965.34
                             1989.98  2050.47  2096.62  2126.89  2135.16
                             2168.45  2179.66  2184.61  2187.25  2204.60
                             2230.05  2292.45  2382.33  2386.80  4398.95
                             4409.69  4527.94  4531.62  4592.35  4612.06
                             4625.36  4637.24  4650.50  4662.37  4683.56
                             4802.23  5092.19

 Zero-point correction=                           0.241258 (Hartree/Particle)
 Thermal correction to Energy=                    0.257802
 Thermal correction to Enthalpy=                  0.258746
 Thermal correction to Gibbs Free Energy=         0.195152
 Sum of electronic and zero-point Energies=          -1210.946602
 Sum of electronic and thermal Energies=             -1210.930058
 Sum of electronic and thermal Enthalpies=           -1210.929113
 Sum of electronic and thermal Free Energies=        -1210.992708

                     E (Thermal)             CV                S
                      KCal/Mol        Cal/Mol-Kelvin    Cal/Mol-Kelvin
 Total                  161.773             62.473            133.846
 Electronic               0.000              0.000              0.000
 Translational            0.889              2.981             42.646
 Rotational               0.889              2.981             33.665
 Vibrational            159.996             56.512             57.534
 Vibration     1          0.593              1.986              6.728
 Vibration     2          0.594              1.981              5.245
 Vibration     3          0.595              1.980              5.060
 Vibration     4          0.599              1.966              4.038
 Vibration     5          0.601              1.959              3.757
 Vibration     6          0.605              1.946              3.381
 Vibration     7          0.606              1.941              3.258
 Vibration     8          0.630              1.865              2.315
 Vibration     9          0.642              1.825              2.041
 Vibration    10          0.648              1.808              1.944
 Vibration    11          0.657              1.781              1.809
 Vibration    12          0.664              1.759              1.715
 Vibration    13          0.677              1.720              1.566
 Vibration    14          0.704              1.641              1.325
 Vibration    15          0.724              1.583              1.184
 Vibration    16          0.737              1.548              1.108
 Vibration    17          0.758              1.491              0.999
 Vibration    18          0.782              1.427              0.893
 Vibration    19          0.787              1.416              0.876
 Vibration    20          0.824              1.325              0.748
 Vibration    21          0.840              1.285              0.699
 Vibration    22          0.847              1.268              0.679
 Vibration    23          0.878              1.198              0.602
 Vibration    24          0.899              1.154              0.558
 Vibration    25          0.941              1.066              0.478

 Optimization completed.
    -- Stationary point found.
 Normal termination of Gaussian 16 at Mon Sep 14 02:53:14 2020.

 ----------------------------------------------------------------------
 #p b3lyp/6-31G(d) scrf=(iefpcm,read,solvent=water) geom=allcheck guess
 =read
 ----------------------------------------------------------------------

 Structure from the checkpoint file:  "SM46_m0.n.10.pdb.xyz.mst.n.w.chk"
 --------------------
 SM46_m0.n.10.pdb.xyz
 --------------------
 Charge =  0 Multiplicity = 1

 SCF Done:  E(RB3LYP) =  -1211.18784995     A.U. after    5 cycles
 Normal termination of Gaussian 16 at Mon Sep 14 02:53:57 2020.

 -----------------------------
 #p B3LYP/6-31G* geom=allcheck
 -----------------------------

 Structure from the checkpoint file:  "SM46_m0.n.10.pdb.xyz.mst.n.w.chk"
 --------------------
 SM46_m0.n.10.pdb.xyz
 --------------------
 Charge =  0 Multiplicity = 1

 SCF Done:  E(RB3LYP) =  -1211.16227777     A.U. after   14 cycles
 Normal termination of Gaussian 16 at Mon Sep 14 02:54:37 2020.
 Gaussian 16:  ES64L-G16RevB.01 20-Dec-2017

 ----------------------------------------------------------------------
 #p mp2/aug-cc-pVDZ scf=(MaxCycle=2000,NoVarAcc,NoIncFock) maxdisk=180G
 B geom=allcheck
 ----------------------------------------------------------------------

 Structure from the checkpoint file:  "SM46_m0.n.10.pdb.xyz.mst.n.w.chk"
 --------------------
 SM46_m0.n.10.pdb.xyz
 --------------------
 Charge =  0 Multiplicity = 1

                         Standard orientation:
 ---------------------------------------------------------------------
 Center     Atomic      Atomic             Coordinates (Angstroms)
 Number     Number       Type             X           Y           Z
 ---------------------------------------------------------------------
      1          8           0        2.215233   -0.689889    1.689885
      2         16           0        2.836369   -0.701585    0.360164
      3          7           0        1.697811   -0.850950   -0.883009
      4          6           0        0.419809   -0.284158   -0.709954
      5          7           0        0.179945    1.030088   -0.972129
      6          7           0       -1.085136    1.276700   -0.761651
      7          6           0       -0.759392   -0.883346   -0.318864
      8          7           0       -1.671934    0.117065   -0.374323
      9          6           0       -3.068177    0.066706   -0.091708
     10          6           0       -3.756531   -1.140395   -0.228716
     11          6           0       -5.120072   -1.180576    0.058873
     12          6           0       -5.790161   -0.024722    0.464183
     13          6           0       -5.089299    1.176810    0.588033
     14          6           0       -3.723981    1.229269    0.317850
     15          7           0        3.367531    0.857092    0.069529
     16          6           0        4.016408    1.513621    1.217273
     17          6           0        4.091126    1.023719   -1.199742
     18          8           0        3.836831   -1.736947    0.058022
     19          1           0        1.685366   -1.821457   -1.196865
     20          1           0       -0.997229   -1.887501   -0.013216
     21          1           0       -3.238383   -2.030334   -0.565888
     22          1           0       -5.657844   -2.116290   -0.045013
     23          1           0       -6.851792   -0.059949    0.682034
     24          1           0       -5.602803    2.077460    0.905627
     25          1           0       -3.165741    2.150232    0.423278
     26          1           0        3.401294    1.384761    2.105283
     27          1           0        4.083983    2.576574    0.980394
     28          1           0        5.025486    1.127856    1.405147
     29          1           0        3.518397    0.560028   -2.001984
     30          1           0        5.097737    0.592221   -1.163915
     31          1           0        4.167220    2.094899   -1.393057
 ---------------------------------------------------------------------

 SCF Done:  E(RHF) =  -1205.69860636     A.U. after   17 cycles
 E2 =    -0.2807753051D+01 EUMP2 =    -0.12085063594139D+04

 The electronic state is 1-A.
 Alpha  occ. eigenvalues --  -92.24268 -20.56147 -20.56099 -15.68896 -15.66182
 Alpha  occ. eigenvalues --  -15.62990 -15.62138 -15.61112 -11.31841 -11.31634
 Alpha  occ. eigenvalues --  -11.30724 -11.27253 -11.27199 -11.26959 -11.26673
 Alpha  occ. eigenvalues --  -11.26466 -11.26257 -11.26055  -9.20779  -6.89323
 Alpha  occ. eigenvalues --   -6.89277  -6.89233  -1.46948  -1.45787  -1.33920
 Alpha  occ. eigenvalues --   -1.27618  -1.25164  -1.23582  -1.16740  -1.08942
 Alpha  occ. eigenvalues --   -1.04456  -1.03928  -0.97755  -0.95332  -0.90667
 Alpha  occ. eigenvalues --   -0.87808  -0.84076  -0.82532  -0.79884  -0.76637
 Alpha  occ. eigenvalues --   -0.72560  -0.72152  -0.70172  -0.68596  -0.67091
 Alpha  occ. eigenvalues --   -0.66957  -0.65788  -0.63547  -0.63156  -0.62479
 Alpha  occ. eigenvalues --   -0.61297  -0.60926  -0.57734  -0.56452  -0.54365
 Alpha  occ. eigenvalues --   -0.53831  -0.53532  -0.53347  -0.52274  -0.52031
 Alpha  occ. eigenvalues --   -0.50340  -0.49483  -0.48008  -0.46679  -0.44998
 Alpha  occ. eigenvalues --   -0.44034  -0.40281  -0.36945  -0.36063  -0.33367
 Alpha virt. eigenvalues --    0.02646   0.03301   0.03882   0.04294   0.04763
 Alpha virt. eigenvalues --    0.05454   0.05810   0.06014   0.06288   0.07252
 Alpha virt. eigenvalues --    0.07457   0.07926   0.08103   0.08803   0.09101

 Mulliken charges:
               1
     1  O   -1.161204
     2  S    3.197637
     3  N   -0.940255
     4  C    0.629374
     5  N   -0.616174
     6  N   -0.454601
     7  C    1.253469
     8  N   -0.665502
     9  C    0.833389
    10  C    0.075889
    11  C    0.742328
    12  C    0.609566
    13  C    0.581846
    14  C    0.457512
    15  N   -1.145965
    16  C    0.783684
    17  C    0.678348
    18  O   -1.158674
    19  H   -0.042509
    20  H   -0.511204
    21  H   -0.661575
    22  H   -0.435809
    23  H   -0.444179
    24  H   -0.431707
    25  H   -0.523465
    26  H   -0.143911
    27  H   -0.144867
    28  H   -0.059245
    29  H   -0.115620
    30  H   -0.042582
    31  H   -0.143994
 Sum of Mulliken charges =  -0.00000

 Dipole moment (field-independent basis, Debye):
    X=             -3.5160    Y=             -0.1759    Z=             -1.1584  Tot=              3.7061
 Quadrupole moment (field-independent basis, Debye-Ang):
   XX=            -95.3546   YY=           -109.0477   ZZ=           -120.3103
   XY=             17.2766   XZ=             -7.2399   YZ=              9.1138

 Normal termination of Gaussian 16 at Mon Sep 14 03:22:06 2020.
