 Gaussian 16, Revision B.01,

 ----------------------------------------------------------------------
 #p b3lyp/6-31G(d) opt freq NoSymm scf=(MaxCycle=2000,NoVarAcc,NoIncFoc
 k) scrf=(iefpcm,read,solvent=water)
 ----------------------------------------------------------------------

 -------------------
 SM46_m1.a.6.pdb.xyz
 -------------------
 Symbolic Z-matrix:
 Charge = -1 Multiplicity = 1

 SCF Done:  E(RB3LYP) =  -1210.71554620     A.U. after   13 cycles
 SCF Done:  E(RB3LYP) =  -1210.71515414     A.U. after   10 cycles
 SCF Done:  E(RB3LYP) =  -1210.71536825     A.U. after   10 cycles
 SCF Done:  E(RB3LYP) =  -1210.71554397     A.U. after   10 cycles
 SCF Done:  E(RB3LYP) =  -1210.71555083     A.U. after    9 cycles
 SCF Done:  E(RB3LYP) =  -1210.71529359     A.U. after   11 cycles
 SCF Done:  E(RB3LYP) =  -1210.71525926     A.U. after   10 cycles
 SCF Done:  E(RB3LYP) =  -1210.71553360     A.U. after   11 cycles
 SCF Done:  E(RB3LYP) =  -1210.71555022     A.U. after    9 cycles
 SCF Done:  E(RB3LYP) =  -1210.71555082     A.U. after    8 cycles
 SCF Done:  E(RB3LYP) =  -1210.71554926     A.U. after   10 cycles
 SCF Done:  E(RB3LYP) =  -1210.71525618     A.U. after   11 cycles
 SCF Done:  E(RB3LYP) =  -1210.71525028     A.U. after    7 cycles
 SCF Done:  E(RB3LYP) =  -1210.71552621     A.U. after   11 cycles
 SCF Done:  E(RB3LYP) =  -1210.71554920     A.U. after   10 cycles
 SCF Done:  E(RB3LYP) =  -1210.71525099     A.U. after   11 cycles
 Optimization completed.
    -- Stationary point found.
 Normal termination of Gaussian 16 at Thu Sep 24 17:22:40 2020.

 --------------------------------------------------------------------
 #P Geom=AllCheck Guess=TCheck SCRF=Check GenChk RB3LYP/6-31G(d) Freq
 --------------------------------------------------------------------

 Structure from the checkpoint file:  "SM46_m1.a.6.pdb.xyz.mst.a.w.chk"
 -------------------
 SM46_m1.a.6.pdb.xyz
 -------------------
 Charge = -1 Multiplicity = 1

 SCF Done:  E(RB3LYP) =  -1210.71525099     A.U. after    1 cycles

  Exact polarizability: 314.142 -29.057 178.362  11.913  46.129 173.515
 Approx polarizability: 329.948 -37.537 221.463  16.385  65.520 207.017

                      1                      2                      3
                      A                      A                      A
 Frequencies --     29.1970                33.0646                57.3980
 Red. masses --      4.6431                 4.1778                 5.0745
 Frc consts  --      0.0023                 0.0027                 0.0099
 IR Inten    --      5.4594                 3.2652                 8.1406

                      4                      5                      6
                      A                      A                      A
 Frequencies --     64.1729                83.2572                92.3363
 Red. masses --      3.3330                 5.6426                 5.2871
 Frc consts  --      0.0081                 0.0230                 0.0266
 IR Inten    --      3.4567                 1.1355                 5.8120

                      7                      8                      9
                      A                      A                      A
 Frequencies --    171.1535               185.6229               225.7532
 Red. masses --      5.3122                 4.3279                 1.1257
 Frc consts  --      0.0917                 0.0879                 0.0338
 IR Inten    --     10.8207                 4.7211                 0.8808

                     10                     11                     12
                      A                      A                      A
 Frequencies --    236.6252               252.3741               266.2292
 Red. masses --      1.2094                 4.1221                 3.2401
 Frc consts  --      0.0399                 0.1547                 0.1353
 IR Inten    --      0.3324                 4.2055                 0.9488

                     13                     14                     15
                      A                      A                      A
 Frequencies --    285.5074               334.6279               345.4459
 Red. masses --      8.9101                 6.7112                 3.2597
 Frc consts  --      0.4279                 0.4428                 0.2292
 IR Inten    --      2.8347                 5.0196                10.7097

                     16                     17                     18
                      A                      A                      A
 Frequencies --    370.4855               395.8647               401.5694
 Red. masses --      7.6206                 6.9521                 5.2835
 Frc consts  --      0.6163                 0.6419                 0.5020
 IR Inten    --      2.3751                 8.6620                16.6198

                     19                     20                     21
                      A                      A                      A
 Frequencies --    419.4553               457.9258               489.9222
 Red. masses --      3.1021                 6.4167                 4.6842
 Frc consts  --      0.3216                 0.7928                 0.6624
 IR Inten    --      0.4291                 7.5285                36.4653

                     22                     23                     24
                      A                      A                      A
 Frequencies --    502.0565               530.4792               570.6692
 Red. masses --      5.9093                 3.6780                11.4698
 Frc consts  --      0.8776                 0.6098                 2.2008
 IR Inten    --      1.1252                 6.6479               148.9092

                     25                     26                     27
                      A                      A                      A
 Frequencies --    628.5599               649.1283               666.8161
 Red. masses --      6.4279                 8.0313                 4.7189
 Frc consts  --      1.4963                 1.9939                 1.2362
 IR Inten    --      1.0659               399.6100                12.4144

                     28                     29                     30
                      A                      A                      A
 Frequencies --    688.8940               704.6011               706.1570
 Red. masses --      7.7504                 2.5522                 2.4024
 Frc consts  --      2.1671                 0.7465                 0.7058
 IR Inten    --     38.0076                 1.7906                42.5512

                     31                     32                     33
                      A                      A                      A
 Frequencies --    743.9251               748.9631               778.3958
 Red. masses --      3.8405                 2.7904                 1.6382
 Frc consts  --      1.2523                 0.9222                 0.5848
 IR Inten    --     53.5129                73.7710                64.2544

                     34                     35                     36
                      A                      A                      A
 Frequencies --    854.9998               931.6264               932.7628
 Red. masses --      1.2512                 1.4290                 3.5416
 Frc consts  --      0.5389                 0.7307                 1.8155
 IR Inten    --      0.4951                 2.9651               215.2114

                     37                     38                     39
                      A                      A                      A
 Frequencies --    944.8867               982.2148              1004.1230
 Red. masses --      7.8527                 1.3368                 7.7965
 Frc consts  --      4.1308                 0.7598                 4.6315
 IR Inten    --    152.5070                 0.3097                56.1806

                     40                     41                     42
                      A                      A                      A
 Frequencies --   1007.7462              1017.8891              1051.4808
 Red. masses --      1.2588                 5.9584                 2.6749
 Frc consts  --      0.7532                 3.6373                 1.7425
 IR Inten    --      0.8938                 4.8885                49.2245

                     43                     44                     45
                      A                      A                      A
 Frequencies --   1057.9157              1058.9643              1072.4713
 Red. masses --      2.8058                 1.5490                 3.5236
 Frc consts  --      1.8502                 1.0234                 2.3879
 IR Inten    --    110.8118                22.7704               218.6322

                     46                     47                     48
                      A                      A                      A
 Frequencies --   1098.6436              1113.5920              1124.3870
 Red. masses --      4.7683                 1.8887                 1.2224
 Frc consts  --      3.3910                 1.3800                 0.9105
 IR Inten    --    263.8741               123.6439                 5.1383

                     49                     50                     51
                      A                      A                      A
 Frequencies --   1175.5818              1186.0450              1203.1342
 Red. masses --      1.4308                 1.1008                 1.2196
 Frc consts  --      1.1650                 0.9123                 1.0401
 IR Inten    --      6.3675                 0.4529                 0.1658

                     52                     53                     54
                      A                      A                      A
 Frequencies --   1210.3029              1225.3903              1229.3957
 Red. masses --      4.3435                 4.8862                 8.0137
 Frc consts  --      3.7486                 4.3228                 7.1362
 IR Inten    --      4.6475                18.8633               453.5433

                     55                     56                     57
                      A                      A                      A
 Frequencies --   1258.1664              1263.4626              1281.1252
 Red. masses --      3.2260                 1.8977                 4.1836
 Frc consts  --      3.0088                 1.7849                 4.0456
 IR Inten    --     54.0168                 9.9707               301.2002

                     58                     59                     60
                      A                      A                      A
 Frequencies --   1333.7584              1366.9752              1377.7328
 Red. masses --      3.6279                 2.8180                 3.0694
 Frc consts  --      3.8024                 3.1025                 3.4327
 IR Inten    --    104.8990                 1.3006               275.6916

                     61                     62                     63
                      A                      A                      A
 Frequencies --   1441.4444              1448.1211              1457.5289
 Red. masses --      1.1521                 4.1374                 1.2048
 Frc consts  --      1.4104                 5.1120                 1.5080
 IR Inten    --      0.4105               169.3314                 4.8943

                     64                     65                     66
                      A                      A                      A
 Frequencies --   1500.6969              1510.2607              1512.1312
 Red. masses --      1.0480                 1.0604                 2.4818
 Frc consts  --      1.3906                 1.4251                 3.3434
 IR Inten    --     12.2891                30.7020                21.3999

                     67                     68                     69
                      A                      A                      A
 Frequencies --   1517.4862              1526.9418              1545.7590
 Red. masses --      1.0484                 1.0469                 2.7038
 Frc consts  --      1.4224                 1.4382                 3.8063
 IR Inten    --      6.3432                18.5967               415.6190

                     70                     71                     72
                      A                      A                      A
 Frequencies --   1577.2131              1651.9649              1658.3739
 Red. masses --      6.4305                 6.3107                 5.6980
 Frc consts  --      9.4249                10.1468                 9.2329
 IR Inten    --    457.2892                 7.7089                50.1789

                     73                     74                     75
                      A                      A                      A
 Frequencies --   3019.5787              3023.2621              3114.3026
 Red. masses --      1.0505                 1.0521                 1.0863
 Frc consts  --      5.6434                 5.6657                 6.2075
 IR Inten    --     54.1146               116.6449                58.8444

                     76                     77                     78
                      A                      A                      A
 Frequencies --   3117.1495              3179.3377              3182.7668
 Red. masses --      1.0872                 1.1003                 1.0998
 Frc consts  --      6.2243                 6.5532                 6.5643
 IR Inten    --     41.1086                16.0030                16.3472

                     79                     80                     81
                      A                      A                      A
 Frequencies --   3208.0170              3215.6612              3228.6831
 Red. masses --      1.0863                 1.0902                 1.0948
 Frc consts  --      6.5867                 6.6418                 6.7241
 IR Inten    --      1.9045                24.2294                47.1952

                     82                     83                     84
                      A                      A                      A
 Frequencies --   3239.9228              3255.6165              3367.1859
 Red. masses --      1.0938                 1.0926                 1.0975
 Frc consts  --      6.7646                 6.8233                 7.3313
 IR Inten    --      9.5546                 2.4543                10.0083

 - Thermochemistry -
 -------------------
 Temperature   298.150 Kelvin.  Pressure   1.00000 Atm.
 Atom     1 has atomic number  8 and mass  15.99491

 Molecular mass:   266.07117 amu.
 Principal axes and moments of inertia in atomic units:
                           1         2         3
     Eigenvalues --  1798.34707********************
           X            0.99908  -0.03346  -0.02683
           Y            0.01303   0.83282  -0.55339
           Z            0.04087   0.55253   0.83249
 This molecule is an asymmetric top.
 Rotational symmetry number  1.
 Warning -- assumption of classical behavior for rotation
           may cause significant error
 Rotational temperatures (Kelvin)      0.04816     0.00849     0.00815
 Rotational constants (GHZ):           1.00356     0.17697     0.16987
 Zero-point vibrational energy     598018.1 (Joules/Mol)
                                  142.92975 (Kcal/Mol)
 Warning -- explicit consideration of  24 degrees of freedom as
           vibrations may cause significant error
 Vibrational temperatures:     42.01    47.57    82.58    92.33   119.79
          (Kelvin)            132.85   246.25   267.07   324.81   340.45
                              363.11   383.04   410.78   481.45   497.02
                              533.05   569.56   577.77   603.50   658.85
                              704.89   722.35   763.24   821.07   904.36
                              933.95   959.40   991.16  1013.76  1016.00
                             1070.34  1077.59  1119.94  1230.15  1340.40
                             1342.04  1359.48  1413.19  1444.71  1449.92
                             1464.52  1512.85  1522.10  1523.61  1543.05
                             1580.70  1602.21  1617.74  1691.40  1706.45
                             1731.04  1741.36  1763.06  1768.83  1810.22
                             1817.84  1843.25  1918.98  1966.77  1982.25
                             2073.92  2083.52  2097.06  2159.17  2172.93
                             2175.62  2183.32  2196.93  2224.00  2269.26
                             2376.81  2386.03  4344.50  4349.80  4480.79
                             4484.88  4574.36  4579.29  4615.62  4626.62
                             4645.35  4661.53  4684.11  4844.63

 Zero-point correction=                           0.227773 (Hartree/Particle)
 Thermal correction to Energy=                    0.243965
 Thermal correction to Enthalpy=                  0.244909
 Thermal correction to Gibbs Free Energy=         0.182401
 Sum of electronic and zero-point Energies=          -1210.487478
 Sum of electronic and thermal Energies=             -1210.471286
 Sum of electronic and thermal Enthalpies=           -1210.470342
 Sum of electronic and thermal Free Energies=        -1210.532850

                     E (Thermal)             CV                S
                      KCal/Mol        Cal/Mol-Kelvin    Cal/Mol-Kelvin
 Total                  153.090             61.397            131.559
 Electronic               0.000              0.000              0.000
 Translational            0.889              2.981             42.635
 Rotational               0.889              2.981             33.632
 Vibrational            151.313             55.435             55.292
 Vibration     1          0.593              1.984              5.883
 Vibration     2          0.594              1.983              5.637
 Vibration     3          0.596              1.975              4.545
 Vibration     4          0.597              1.971              4.325
 Vibration     5          0.600              1.961              3.813
 Vibration     6          0.602              1.955              3.610
 Vibration     7          0.626              1.878              2.423
 Vibration     8          0.632              1.859              2.271
 Vibration     9          0.650              1.802              1.912
 Vibration    10          0.656              1.785              1.828
 Vibration    11          0.664              1.759              1.714
 Vibration    12          0.672              1.735              1.621
 Vibration    13          0.683              1.701              1.500
 Vibration    14          0.716              1.606              1.238
 Vibration    15          0.724              1.585              1.187
 Vibration    16          0.742              1.533              1.078
 Vibration    17          0.763              1.479              0.978
 Vibration    18          0.767              1.467              0.957
 Vibration    19          0.782              1.428              0.894
 Vibration    20          0.816              1.343              0.772
 Vibration    21          0.846              1.272              0.684
 Vibration    22          0.857              1.245              0.653
 Vibration    23          0.885              1.183              0.586
 Vibration    24          0.927              1.095              0.503

 Optimization completed.
    -- Stationary point found.
 Normal termination of Gaussian 16 at Thu Sep 24 17:30:07 2020.

 ----------------------------------------------------------------------
 #p b3lyp/6-31G(d) scrf=(iefpcm,read,solvent=water) geom=allcheck guess
 =read
 ----------------------------------------------------------------------

 Structure from the checkpoint file:  "SM46_m1.a.6.pdb.xyz.mst.a.w.chk"
 -------------------
 SM46_m1.a.6.pdb.xyz
 -------------------
 Charge = -1 Multiplicity = 1

 SCF Done:  E(RB3LYP) =  -1210.71523812     A.U. after    7 cycles
 Normal termination of Gaussian 16 at Thu Sep 24 17:30:42 2020.

 -----------------------------
 #p B3LYP/6-31G* geom=allcheck
 -----------------------------

 Structure from the checkpoint file:  "SM46_m1.a.6.pdb.xyz.mst.a.w.chk"
 -------------------
 SM46_m1.a.6.pdb.xyz
 -------------------
 Charge = -1 Multiplicity = 1

 SCF Done:  E(RB3LYP) =  -1210.61759762     A.U. after   15 cycles
 Normal termination of Gaussian 16 at Thu Sep 24 17:31:19 2020.
 Gaussian 16:  ES64L-G16RevB.01 20-Dec-2017

 ----------------------------------------------------------------------
 #p mp2/aug-cc-pVDZ scf=(MaxCycle=2000,NoVarAcc,NoIncFock) maxdisk=120G
 B geom=allcheck
 ----------------------------------------------------------------------

 Structure from the checkpoint file:  "SM46_m1.a.6.pdb.xyz.mst.a.w.chk"
 -------------------
 SM46_m1.a.6.pdb.xyz
 -------------------
 Charge = -1 Multiplicity = 1

                         Standard orientation:
 ---------------------------------------------------------------------
 Center     Atomic      Atomic             Coordinates (Angstroms)
 Number     Number       Type             X           Y           Z
 ---------------------------------------------------------------------
      1          8           0        1.968016   -1.704184   -0.608777
      2         16           0        2.782941   -0.463246   -0.561535
      3          7           0        1.955486    0.881848   -0.780334
      4          6           0        0.593591    0.904369   -0.555231
      5          7           0       -0.039746    2.127406   -0.519510
      6          7           0       -1.328233    1.952676   -0.339058
      7          6           0       -0.384740   -0.069471   -0.386224
      8          7           0       -1.551080    0.627498   -0.248818
      9          6           0       -2.864892    0.124041   -0.050815
     10          6           0       -3.150695   -1.210882   -0.351411
     11          6           0       -4.441146   -1.698125   -0.146383
     12          6           0       -5.444657   -0.860529    0.343435
     13          6           0       -5.148845    0.473462    0.634134
     14          6           0       -3.861323    0.971145    0.446090
     15          7           0        3.473596   -0.496512    1.021677
     16          6           0        4.416347    0.602597    1.257346
     17          6           0        2.467964   -0.594091    2.086850
     18          8           0        3.968723   -0.418185   -1.444749
     19          1           0       -0.321816   -1.139586   -0.337529
     20          1           0       -2.378459   -1.857490   -0.750552
     21          1           0       -4.659866   -2.734759   -0.379548
     22          1           0       -6.447576   -1.243051    0.497922
     23          1           0       -5.920926    1.131217    1.018650
     24          1           0       -3.616937    1.999227    0.678775
     25          1           0        5.150088    0.626411    0.452530
     26          1           0        4.931209    0.410695    2.202186
     27          1           0        3.918105    1.580627    1.323092
     28          1           0        1.784939   -1.412990    1.862745
     29          1           0        1.893639    0.335077    2.215474
     30          1           0        2.986855   -0.810002    3.024586
 ---------------------------------------------------------------------

 SCF Done:  E(RHF) =  -1205.15159498     A.U. after   18 cycles
 E2 =    -0.2826795732D+01 EUMP2 =    -0.12079783907070D+04

 The electronic state is 1-A.
 Alpha  occ. eigenvalues --  -92.06356 -20.39074 -20.38119 -15.54959 -15.52357
 Alpha  occ. eigenvalues --  -15.47139 -15.45743 -15.38601 -11.21410 -11.17386
 Alpha  occ. eigenvalues --  -11.17302 -11.16825 -11.16658 -11.16591 -11.16286
 Alpha  occ. eigenvalues --  -11.14306 -11.13827 -11.13749  -9.02790  -6.71379
 Alpha  occ. eigenvalues --   -6.71286  -6.71245  -1.31507  -1.28889  -1.16144
 Alpha  occ. eigenvalues --   -1.12387  -1.09455  -1.06479  -1.04058  -0.95022
 Alpha  occ. eigenvalues --   -0.93861  -0.91837  -0.84101  -0.78998  -0.78092
 Alpha  occ. eigenvalues --   -0.76158  -0.70719  -0.69006  -0.64884  -0.62231
 Alpha  occ. eigenvalues --   -0.58791  -0.56586  -0.55486  -0.54366  -0.53085
 Alpha  occ. eigenvalues --   -0.52533  -0.51505  -0.50905  -0.50002  -0.49325
 Alpha  occ. eigenvalues --   -0.46029  -0.44314  -0.43930  -0.43281  -0.42974
 Alpha  occ. eigenvalues --   -0.42662  -0.39854  -0.38884  -0.36427  -0.34772
 Alpha  occ. eigenvalues --   -0.33234  -0.31558  -0.30999  -0.30449  -0.29169
 Alpha  occ. eigenvalues --   -0.26729  -0.26387  -0.25450  -0.23299  -0.15051
 Alpha virt. eigenvalues --    0.08882   0.10046   0.11109   0.11642   0.13037
 Alpha virt. eigenvalues --    0.13244   0.14054   0.15198   0.15267   0.16061
 Alpha virt. eigenvalues --    0.16478   0.17636   0.17840   0.18082   0.18533

 Mulliken charges:
               1
     1  O   -1.267850
     2  S    2.960048
     3  N   -1.156527
     4  C    0.496732
     5  N   -0.717505
     6  N   -0.473601
     7  C    1.032457
     8  N   -0.683154
     9  C    0.706902
    10  C    0.296609
    11  C    0.603439
    12  C    0.679361
    13  C    0.514389
    14  C    0.767194
    15  N   -1.115684
    16  C    0.721042
    17  C    0.748912
    18  O   -1.186224
    19  H   -0.691387
    20  H   -0.642663
    21  H   -0.466720
    22  H   -0.463210
    23  H   -0.456695
    24  H   -0.536786
    25  H   -0.133356
    26  H   -0.177019
    27  H   -0.013848
    28  H   -0.127202
    29  H    0.007531
    30  H   -0.225183
 Sum of Mulliken charges =  -1.00000

 Dipole moment (field-independent basis, Debye):
    X=             -9.5725    Y=             -1.9901    Z=              5.7135  Tot=             11.3242
 Quadrupole moment (field-independent basis, Debye-Ang):
   XX=           -154.0753   YY=           -133.8238   ZZ=           -125.6802
   XY=             10.1791   XZ=             14.9031   YZ=              3.4147

 Normal termination of Gaussian 16 at Thu Sep 24 18:01:46 2020.
