 Gaussian 16, Revision B.01,

 ----------------------------------------------------------------------
 #p b3lyp/6-31G(d) opt freq NoSymm scf=(MaxCycle=2000,NoVarAcc,NoIncFoc
 k) scrf=(iefpcm,read,solvent=water) MaxDisk=20GB
 ----------------------------------------------------------------------

 -------------------
 SM46_m0.n.8.pdb.xyz
 -------------------
 Symbolic Z-matrix:
 Charge =  0 Multiplicity = 1

 SCF Done:  E(RB3LYP) =  -1211.18967547     A.U. after   13 cycles
 SCF Done:  E(RB3LYP) =  -1211.18978598     A.U. after   10 cycles
 SCF Done:  E(RB3LYP) =  -1211.18983014     A.U. after    9 cycles
 SCF Done:  E(RB3LYP) =  -1211.18984512     A.U. after    8 cycles
 SCF Done:  E(RB3LYP) =  -1211.18985695     A.U. after    9 cycles
 SCF Done:  E(RB3LYP) =  -1211.18986091     A.U. after    8 cycles
 SCF Done:  E(RB3LYP) =  -1211.18986051     A.U. after    9 cycles
 SCF Done:  E(RB3LYP) =  -1211.18985602     A.U. after    9 cycles
 SCF Done:  E(RB3LYP) =  -1211.18985994     A.U. after    9 cycles
 SCF Done:  E(RB3LYP) =  -1211.18984411     A.U. after   10 cycles
 SCF Done:  E(RB3LYP) =  -1211.18984206     A.U. after    9 cycles
 SCF Done:  E(RB3LYP) =  -1211.18986062     A.U. after   10 cycles
 SCF Done:  E(RB3LYP) =  -1211.18983492     A.U. after   10 cycles
 SCF Done:  E(RB3LYP) =  -1211.18983289     A.U. after    8 cycles
 SCF Done:  E(RB3LYP) =  -1211.18983380     A.U. after    7 cycles
 SCF Done:  E(RB3LYP) =  -1211.18983409     A.U. after    7 cycles
 Optimization completed.
    -- Stationary point found.
 Normal termination of Gaussian 16 at Mon Sep 14 02:23:16 2020.

 --------------------------------------------------------------------
 #P Geom=AllCheck Guess=TCheck SCRF=Check GenChk RB3LYP/6-31G(d) Freq
 --------------------------------------------------------------------

 Structure from the checkpoint file:  "SM46_m0.n.8.pdb.xyz.mst.n.w.chk"
 -------------------
 SM46_m0.n.8.pdb.xyz
 -------------------
 Charge =  0 Multiplicity = 1

 SCF Done:  E(RB3LYP) =  -1211.18983409     A.U. after    1 cycles

  Exact polarizability: 292.918 -14.508 215.457  21.925   1.192 128.917
 Approx polarizability: 313.694 -16.650 266.046  29.190   3.417 149.784

                      1                      2                      3
                      A                      A                      A
 Frequencies --     26.1472                29.9883                44.8128
 Red. masses --      4.6972                 4.3578                 4.6344
 Frc consts  --      0.0019                 0.0023                 0.0055
 IR Inten    --      9.2931                 6.3303                 5.6700

                      4                      5                      6
                      A                      A                      A
 Frequencies --     67.8424                80.8039                94.4026
 Red. masses --      6.0108                 3.4741                 4.7837
 Frc consts  --      0.0163                 0.0134                 0.0251
 IR Inten    --     12.0349                 1.2611                 1.3874

                      7                      8                      9
                      A                      A                      A
 Frequencies --    140.8201               163.2009               209.0843
 Red. masses --      5.9513                 2.8186                 1.1527
 Frc consts  --      0.0695                 0.0442                 0.0297
 IR Inten    --     10.0436                 0.3015                 0.0331

                     10                     11                     12
                      A                      A                      A
 Frequencies --    218.2501               251.5406               270.5225
 Red. masses --      1.1768                 4.8673                 4.7974
 Frc consts  --      0.0330                 0.1814                 0.2069
 IR Inten    --      0.9215                 2.6621                 0.6221

                     13                     14                     15
                      A                      A                      A
 Frequencies --    280.1924               308.9018               333.2932
 Red. masses --      4.8842                 6.9745                 4.2104
 Frc consts  --      0.2259                 0.3921                 0.2756
 IR Inten    --      4.5094                 2.8169                16.7107

                     16                     17                     18
                      A                      A                      A
 Frequencies --    360.7569               386.6882               409.8597
 Red. masses --      3.4257                 7.9344                 3.7636
 Frc consts  --      0.2627                 0.6990                 0.3725
 IR Inten    --     11.7523                 4.3364                37.9220

                     19                     20                     21
                      A                      A                      A
 Frequencies --    420.2835               456.7655               480.5640
 Red. masses --      3.0480                 5.1957                 5.1069
 Frc consts  --      0.3172                 0.6387                 0.6949
 IR Inten    --      0.4445                 6.7653                26.5894

                     22                     23                     24
                      A                      A                      A
 Frequencies --    488.1130               523.8807               540.6554
 Red. masses --      4.1914                 3.3010                 4.7472
 Frc consts  --      0.5884                 0.5338                 0.8176
 IR Inten    --      7.8479                82.1803                36.5419

                     25                     26                     27
                      A                      A                      A
 Frequencies --    568.9360               628.3560               675.5809
 Red. masses --      4.7382                 6.3821                 4.0247
 Frc consts  --      0.9036                 1.4847                 1.0823
 IR Inten    --    230.3325                 0.0573                17.3116

                     28                     29                     30
                      A                      A                      A
 Frequencies --    682.6925               695.7736               705.7510
 Red. masses --      5.8449                 5.8932                 2.4254
 Frc consts  --      1.6050                 1.6809                 0.7118
 IR Inten    --    339.4624                18.2581                26.3096

                     31                     32                     33
                      A                      A                      A
 Frequencies --    711.9006               778.7774               798.9997
 Red. masses --      6.6939                 1.6105                 1.5815
 Frc consts  --      1.9988                 0.5755                 0.5948
 IR Inten    --     21.9936                79.4966                35.8539

                     34                     35                     36
                      A                      A                      A
 Frequencies --    816.7713               856.5849               864.8817
 Red. masses --      3.7960                 1.2497                 3.0581
 Frc consts  --      1.4920                 0.5402                 1.3477
 IR Inten    --      4.2687                 0.1550               111.7414

                     37                     38                     39
                      A                      A                      A
 Frequencies --    939.0437               950.2801               983.9586
 Red. masses --      1.3855                 3.1169                 1.3430
 Frc consts  --      0.7199                 1.6584                 0.7661
 IR Inten    --      6.2658               157.1457                 0.3583

                     40                     41                     42
                      A                      A                      A
 Frequencies --   1006.9694              1011.5366              1020.4260
 Red. masses --      7.6720                 1.2687                 6.0970
 Frc consts  --      4.5834                 0.7648                 3.7405
 IR Inten    --     32.0145                 0.4703                 1.2654

                     43                     44                     45
                      A                      A                      A
 Frequencies --   1049.6062              1063.6547              1066.1286
 Red. masses --      2.8631                 2.5322                 3.4746
 Frc consts  --      1.8584                 1.6879                 2.3269
 IR Inten    --      1.1459               136.2828                 4.0311

                     46                     47                     48
                      A                      A                      A
 Frequencies --   1072.8106              1107.6527              1115.8568
 Red. masses --      1.5301                 1.5463                13.7838
 Frc consts  --      1.0376                 1.1178                10.1119
 IR Inten    --     19.0253                21.1716               361.1184

                     49                     50                     51
                      A                      A                      A
 Frequencies --   1131.8990              1172.2237              1188.2621
 Red. masses --      1.2144                 1.3661                 1.1059
 Frc consts  --      0.9167                 1.1060                 0.9200
 IR Inten    --      3.0572                 1.1096                 0.0271

                     52                     53                     54
                      A                      A                      A
 Frequencies --   1196.8556              1225.4597              1226.1609
 Red. masses --      1.1765                 4.0369                 4.0105
 Frc consts  --      0.9930                 3.5719                 3.5525
 IR Inten    --      0.2089                20.9693                10.2008

                     55                     56                     57
                      A                      A                      A
 Frequencies --   1244.6731              1285.8705              1286.9499
 Red. masses --      2.0101                 5.5647                 2.0502
 Frc consts  --      1.8347                 5.4211                 2.0006
 IR Inten    --      4.8248               217.3246                26.8718

                     58                     59                     60
                      A                      A                      A
 Frequencies --   1306.7872              1336.1093              1364.8337
 Red. masses --      5.5672                 3.9847                 1.8796
 Frc consts  --      5.6014                 4.1912                 2.0629
 IR Inten    --    115.0070               137.5887                 3.7124

                     61                     62                     63
                      A                      A                      A
 Frequencies --   1367.5282              1445.9733              1456.3724
 Red. masses --      4.0598                 2.3695                 1.1985
 Frc consts  --      4.4733                 2.9189                 1.4977
 IR Inten    --      4.8946               235.0991                18.7733

                     64                     65                     66
                      A                      A                      A
 Frequencies --   1469.5284              1485.9621              1504.8082
 Red. masses --      1.1598                 2.2418                 1.0458
 Frc consts  --      1.4757                 2.9165                 1.3953
 IR Inten    --      3.8626                32.2084                 6.0132

                     67                     68                     69
                      A                      A                      A
 Frequencies --   1515.2386              1517.3872              1520.4931
 Red. masses --      2.4572                 1.0740                 1.0534
 Frc consts  --      3.3239                 1.4570                 1.4348
 IR Inten    --     46.2391                24.8198                16.3194

                     70                     71                     72
                      A                      A                      A
 Frequencies --   1532.6046              1548.7828              1606.5309
 Red. masses --      1.0505                 2.7802                 6.3142
 Frc consts  --      1.4537                 3.9292                 9.6017
 IR Inten    --     14.0410               102.5716                82.1001

                     73                     74                     75
                      A                      A                      A
 Frequencies --   1655.2843              1658.2792              3058.3555
 Red. masses --      6.4260                 5.7731                 1.0439
 Frc consts  --     10.3737                 9.3536                 5.7527
 IR Inten    --      7.5022                27.6882                55.0192

                     76                     77                     78
                      A                      A                      A
 Frequencies --   3063.7265              3138.3524              3142.7753
 Red. masses --      1.0414                 1.0986                 1.0958
 Frc consts  --      5.7592                 6.3749                 6.3770
 IR Inten    --     58.1131                47.1098                13.5266

                     79                     80                     81
                      A                      A                      A
 Frequencies --   3198.4456              3202.2174              3214.0507
 Red. masses --      1.1020                 1.1010                 1.0862
 Frc consts  --      6.6424                 6.6520                 6.6111
 IR Inten    --      7.0539                 5.8792                 0.3452

                     82                     83                     84
                      A                      A                      A
 Frequencies --   3221.6397              3230.7587              3238.3662
 Red. masses --      1.0897                 1.0934                 1.0967
 Frc consts  --      6.6638                 6.7240                 6.7764
 IR Inten    --     15.8035                38.4387                16.1314

                     85                     86                     87
                      A                      A                      A
 Frequencies --   3257.8420              3350.1073              3506.8576
 Red. masses --      1.0930                 1.1002                 1.0757
 Frc consts  --      6.8351                 7.2751                 7.7945
 IR Inten    --      2.2568                10.3229               148.0873

 - Thermochemistry -
 -------------------
 Temperature   298.150 Kelvin.  Pressure   1.00000 Atm.
 Atom     1 has atomic number  8 and mass  15.99491

 Molecular mass:   267.07900 amu.
 Principal axes and moments of inertia in atomic units:
                           1         2         3
     Eigenvalues --  1765.14099********************
           X            0.99979  -0.01345  -0.01545
           Y            0.01280   0.99905  -0.04170
           Z            0.01599   0.04149   0.99901
 This molecule is an asymmetric top.
 Rotational symmetry number  1.
 Warning -- assumption of classical behavior for rotation
           may cause significant error
 Rotational temperatures (Kelvin)      0.04907     0.00852     0.00822
 Rotational constants (GHZ):           1.02243     0.17757     0.17118
 Zero-point vibrational energy     633031.8 (Joules/Mol)
                                  151.29823 (Kcal/Mol)
 Warning -- explicit consideration of  25 degrees of freedom as
           vibrations may cause significant error
 Vibrational temperatures:     37.62    43.15    64.48    97.61   116.26
          (Kelvin)            135.82   202.61   234.81   300.83   314.01
                              361.91   389.22   403.13   444.44   479.53
                              519.05   556.36   589.70   604.69   657.18
                              691.42   702.29   753.75   777.88   818.57
                              904.06   972.01   982.24  1001.06  1015.42
                             1024.27  1120.49  1149.58  1175.15  1232.43
                             1244.37  1351.07  1367.24  1415.70  1448.80
                             1455.38  1468.17  1510.15  1530.36  1533.92
                             1543.54  1593.67  1605.47  1628.55  1686.57
                             1709.64  1722.01  1763.16  1764.17  1790.81
                             1850.08  1851.63  1880.18  1922.36  1963.69
                             1967.57  2080.43  2095.40  2114.32  2137.97
                             2165.08  2180.09  2183.18  2187.65  2205.08
                             2228.35  2311.44  2381.58  2385.89  4400.29
                             4408.02  4515.39  4521.75  4601.85  4607.28
                             4624.30  4635.22  4648.34  4659.29  4687.31
                             4820.06  5045.59

 Zero-point correction=                           0.241109 (Hartree/Particle)
 Thermal correction to Energy=                    0.257696
 Thermal correction to Enthalpy=                  0.258640
 Thermal correction to Gibbs Free Energy=         0.194989
 Sum of electronic and zero-point Energies=          -1210.948725
 Sum of electronic and thermal Energies=             -1210.932138
 Sum of electronic and thermal Enthalpies=           -1210.931194
 Sum of electronic and thermal Free Energies=        -1210.994845

                     E (Thermal)             CV                S
                      KCal/Mol        Cal/Mol-Kelvin    Cal/Mol-Kelvin
 Total                  161.707             62.573            133.965
 Electronic               0.000              0.000              0.000
 Translational            0.889              2.981             42.646
 Rotational               0.889              2.981             33.603
 Vibrational            159.929             56.611             57.716
 Vibration     1          0.593              1.985              6.102
 Vibration     2          0.594              1.984              5.830
 Vibration     3          0.595              1.979              5.034
 Vibration     4          0.598              1.970              4.215
 Vibration     5          0.600              1.962              3.871
 Vibration     6          0.603              1.953              3.567
 Vibration     7          0.615              1.912              2.793
 Vibration     8          0.623              1.888              2.512
 Vibration     9          0.642              1.827              2.052
 Vibration    10          0.646              1.813              1.974
 Vibration    11          0.664              1.760              1.720
 Vibration    12          0.674              1.727              1.593
 Vibration    13          0.680              1.710              1.532
 Vibration    14          0.698              1.657              1.368
 Vibration    15          0.715              1.609              1.244
 Vibration    16          0.735              1.553              1.119
 Vibration    17          0.755              1.499              1.013
 Vibration    18          0.774              1.449              0.927
 Vibration    19          0.783              1.426              0.891
 Vibration    20          0.815              1.346              0.776
 Vibration    21          0.837              1.293              0.709
 Vibration    22          0.844              1.276              0.689
 Vibration    23          0.879              1.197              0.601
 Vibration    24          0.896              1.160              0.564
 Vibration    25          0.925              1.098              0.506

 Optimization completed.
    -- Stationary point found.
 Normal termination of Gaussian 16 at Mon Sep 14 02:32:20 2020.

 ----------------------------------------------------------------------
 #p b3lyp/6-31G(d) scrf=(iefpcm,read,solvent=water) geom=allcheck guess
 =read
 ----------------------------------------------------------------------

 Structure from the checkpoint file:  "SM46_m0.n.8.pdb.xyz.mst.n.w.chk"
 -------------------
 SM46_m0.n.8.pdb.xyz
 -------------------
 Charge =  0 Multiplicity = 1

 SCF Done:  E(RB3LYP) =  -1211.18983544     A.U. after    6 cycles
 Normal termination of Gaussian 16 at Mon Sep 14 02:32:59 2020.

 -----------------------------
 #p B3LYP/6-31G* geom=allcheck
 -----------------------------

 Structure from the checkpoint file:  "SM46_m0.n.8.pdb.xyz.mst.n.w.chk"
 -------------------
 SM46_m0.n.8.pdb.xyz
 -------------------
 Charge =  0 Multiplicity = 1

 SCF Done:  E(RB3LYP) =  -1211.16735244     A.U. after   15 cycles
 Normal termination of Gaussian 16 at Mon Sep 14 02:33:41 2020.
 Gaussian 16:  ES64L-G16RevB.01 20-Dec-2017

 ----------------------------------------------------------------------
 #p mp2/aug-cc-pVDZ scf=(MaxCycle=2000,NoVarAcc,NoIncFock) maxdisk=180G
 B geom=allcheck
 ----------------------------------------------------------------------

 Structure from the checkpoint file:  "SM46_m0.n.8.pdb.xyz.mst.n.w.chk"
 -------------------
 SM46_m0.n.8.pdb.xyz
 -------------------
 Charge =  0 Multiplicity = 1

                         Standard orientation:
 ---------------------------------------------------------------------
 Center     Atomic      Atomic             Coordinates (Angstroms)
 Number     Number       Type             X           Y           Z
 ---------------------------------------------------------------------
      1          8           0        4.153518    0.636357   -1.169000
      2         16           0        2.902769    0.652055   -0.409927
      3          7           0        1.882218   -0.395221   -1.293196
      4          6           0        0.567261   -0.621458   -0.847414
      5          7           0        0.153898   -1.836389   -0.391488
      6          7           0       -1.118431   -1.763780   -0.093245
      7          6           0       -0.500995    0.249869   -0.827844
      8          7           0       -1.524577   -0.497117   -0.341262
      9          6           0       -2.871503   -0.102169   -0.091024
     10          6           0       -3.162735    1.242004    0.150371
     11          6           0       -4.483720    1.618900    0.386935
     12          6           0       -5.500254    0.662154    0.396605
     13          6           0       -5.192732   -0.680153    0.161395
     14          6           0       -3.878929   -1.069352   -0.090366
     15          7           0        3.257529    0.076040    1.115119
     16          6           0        2.212719    0.184153    2.144751
     17          6           0        4.048881   -1.159699    1.173595
     18          8           0        2.138792    1.885765   -0.226539
     19          1           0        2.377552   -1.259265   -1.524645
     20          1           0       -0.603637    1.278872   -1.121954
     21          1           0       -2.369465    1.979903    0.165263
     22          1           0       -4.713260    2.662118    0.573467
     23          1           0       -6.525352    0.960564    0.585978
     24          1           0       -5.977523   -1.428642    0.163550
     25          1           0       -3.628364   -2.103039   -0.287900
     26          1           0        1.685483    1.128487    2.025323
     27          1           0        2.711931    0.175766    3.116091
     28          1           0        1.502074   -0.648494    2.103009
     29          1           0        4.844507   -1.118289    0.431977
     30          1           0        3.434344   -2.053072    1.011864
     31          1           0        4.496509   -1.214971    2.167593
 ---------------------------------------------------------------------

 SCF Done:  E(RHF) =  -1205.70253152     A.U. after   17 cycles
 E2 =    -0.2809896849D+01 EUMP2 =    -0.12085124283687D+04

 The electronic state is 1-A.
 Alpha  occ. eigenvalues --  -92.24803 -20.56542 -20.56209 -15.69356 -15.66600
 Alpha  occ. eigenvalues --  -15.63155 -15.62706 -15.62076 -11.32148 -11.31807
 Alpha  occ. eigenvalues --  -11.30527 -11.28319 -11.28035 -11.27040 -11.26759
 Alpha  occ. eigenvalues --  -11.26642 -11.26466 -11.26214  -9.21244  -6.89812
 Alpha  occ. eigenvalues --   -6.89730  -6.89719  -1.47551  -1.46234  -1.34840
 Alpha  occ. eigenvalues --   -1.27700  -1.25762  -1.23653  -1.16884  -1.09090
 Alpha  occ. eigenvalues --   -1.04598  -1.04114  -0.98740  -0.95652  -0.90904
 Alpha  occ. eigenvalues --   -0.88174  -0.84481  -0.82463  -0.81130  -0.77113
 Alpha  occ. eigenvalues --   -0.73806  -0.71168  -0.70514  -0.68867  -0.67334
 Alpha  occ. eigenvalues --   -0.66952  -0.65780  -0.64832  -0.63854  -0.62279
 Alpha  occ. eigenvalues --   -0.61438  -0.61197  -0.58662  -0.57438  -0.54722
 Alpha  occ. eigenvalues --   -0.54515  -0.54313  -0.53805  -0.52249  -0.51372
 Alpha  occ. eigenvalues --   -0.50955  -0.50026  -0.48414  -0.47512  -0.45904
 Alpha  occ. eigenvalues --   -0.44886  -0.41604  -0.36372  -0.36100  -0.33296
 Alpha virt. eigenvalues --    0.02804   0.03462   0.03697   0.04403   0.04593
 Alpha virt. eigenvalues --    0.05527   0.05725   0.05893   0.06635   0.07114
 Alpha virt. eigenvalues --    0.07418   0.07790   0.08567   0.08872   0.09428

 Mulliken charges:
               1
     1  O   -1.090382
     2  S    2.920577
     3  N   -0.858581
     4  C    1.152770
     5  N   -0.709843
     6  N   -0.416180
     7  C    0.807552
     8  N   -0.648381
     9  C    0.993296
    10  C    0.091800
    11  C    0.675807
    12  C    0.590461
    13  C    0.577646
    14  C    0.409865
    15  N   -1.195810
    16  C    0.914926
    17  C    0.703517
    18  O   -1.154055
    19  H   -0.034937
    20  H   -0.492249
    21  H   -0.670316
    22  H   -0.439448
    23  H   -0.445075
    24  H   -0.432894
    25  H   -0.548148
    26  H   -0.156294
    27  H   -0.198283
    28  H   -0.049208
    29  H   -0.124384
    30  H   -0.028278
    31  H   -0.145469
 Sum of Mulliken charges =  -0.00000

 Dipole moment (field-independent basis, Debye):
    X=             -4.1054    Y=             -1.1319    Z=              2.6063  Tot=              4.9928
 Quadrupole moment (field-independent basis, Debye-Ang):
   XX=           -105.3659   YY=           -117.9470   ZZ=           -114.0381
   XY=            -16.9433   XZ=             10.2182   YZ=              2.9618

 Normal termination of Gaussian 16 at Mon Sep 14 03:02:06 2020.
