 Gaussian 16, Revision B.01,

 ----------------------------------------------------------------------
 #p b3lyp/6-31G(d) opt freq NoSymm scf=(MaxCycle=2000,NoVarAcc,NoIncFoc
 k) scrf=(iefpcm,read,solvent=water)
 ----------------------------------------------------------------------

 -------------------
 SM46_m0.n.3.pdb.xyz
 -------------------
 Symbolic Z-matrix:
 Charge =  0 Multiplicity = 1

 SCF Done:  E(RB3LYP) =  -1211.18766453     A.U. after   13 cycles
 SCF Done:  E(RB3LYP) =  -1211.18772829     A.U. after    9 cycles
 SCF Done:  E(RB3LYP) =  -1211.18773333     A.U. after    8 cycles
 SCF Done:  E(RB3LYP) =  -1211.18773759     A.U. after    9 cycles
 SCF Done:  E(RB3LYP) =  -1211.18773713     A.U. after    8 cycles
 SCF Done:  E(RB3LYP) =  -1211.18773798     A.U. after    9 cycles
 SCF Done:  E(RB3LYP) =  -1211.18773847     A.U. after    7 cycles
 SCF Done:  E(RB3LYP) =  -1211.18773856     A.U. after    7 cycles
 SCF Done:  E(RB3LYP) =  -1211.18773945     A.U. after    7 cycles
 Optimization completed.
    -- Stationary point found.
 Normal termination of Gaussian 16 at Wed Sep 23 11:30:15 2020.

 --------------------------------------------------------------------
 #P Geom=AllCheck Guess=TCheck SCRF=Check GenChk RB3LYP/6-31G(d) Freq
 --------------------------------------------------------------------

 Structure from the checkpoint file:  "SM46_m0.n.3.pdb.xyz.mst.n.w.chk"
 -------------------
 SM46_m0.n.3.pdb.xyz
 -------------------
 Charge =  0 Multiplicity = 1

 SCF Done:  E(RB3LYP) =  -1211.18773945     A.U. after    1 cycles

  Exact polarizability: 285.237  23.007 189.378  25.116 -37.520 162.205
 Approx polarizability: 303.813  26.563 230.065  32.799 -52.874 194.561

                      1                      2                      3
                      A                      A                      A
 Frequencies --     28.8980                31.5223                44.3679
 Red. masses --      4.3136                 6.0882                 4.1312
 Frc consts  --      0.0021                 0.0036                 0.0048
 IR Inten    --      3.6848                 0.3900                 1.9970

                      4                      5                      6
                      A                      A                      A
 Frequencies --     72.5585                87.4452                98.4122
 Red. masses --      3.1029                 5.4679                 4.9689
 Frc consts  --      0.0096                 0.0246                 0.0284
 IR Inten    --      3.4630                 3.5189                 6.0835

                      7                      8                      9
                      A                      A                      A
 Frequencies --    133.9834               147.6342               192.4592
 Red. masses --      5.9650                 2.7237                 1.2575
 Frc consts  --      0.0631                 0.0350                 0.0274
 IR Inten    --      1.4548                 3.1421                 1.3446

                     10                     11                     12
                      A                      A                      A
 Frequencies --    209.0883               255.5246               266.0169
 Red. masses --      1.0681                 5.6497                 5.8413
 Frc consts  --      0.0275                 0.2173                 0.2435
 IR Inten    --      0.5941                 3.6533                 0.8363

                     13                     14                     15
                      A                      A                      A
 Frequencies --    274.5618               297.6658               328.0767
 Red. masses --      4.0662                 9.2199                 4.2531
 Frc consts  --      0.1806                 0.4813                 0.2697
 IR Inten    --      5.7283                 1.8493                10.1560

                     16                     17                     18
                      A                      A                      A
 Frequencies --    361.2418               387.5994               413.2366
 Red. masses --      3.3614                 7.8432                 4.2164
 Frc consts  --      0.2584                 0.6942                 0.4242
 IR Inten    --     13.6510                 0.9710                27.3948

                     19                     20                     21
                      A                      A                      A
 Frequencies --    421.0504               470.6421               476.6176
 Red. masses --      3.0861                 5.4805                 5.3550
 Frc consts  --      0.3223                 0.7152                 0.7167
 IR Inten    --      0.8084                29.7570                 6.3256

                     22                     23                     24
                      A                      A                      A
 Frequencies --    488.7475               524.8509               536.0059
 Red. masses --      3.8867                 2.5768                 4.3599
 Frc consts  --      0.5470                 0.4182                 0.7380
 IR Inten    --     25.0913               104.0432                75.2166

                     25                     26                     27
                      A                      A                      A
 Frequencies --    563.4612               628.3710               668.4635
 Red. masses --      5.8769                 6.4157                 3.9250
 Frc consts  --      1.0993                 1.4925                 1.0334
 IR Inten    --    172.0254                 0.6398                19.4581

                     28                     29                     30
                      A                      A                      A
 Frequencies --    679.9825               698.0674               706.1452
 Red. masses --      6.9599                 6.0395                 2.3363
 Frc consts  --      1.8960                 1.7340                 0.6864
 IR Inten    --    301.0302                29.7606                40.9347

                     31                     32                     33
                      A                      A                      A
 Frequencies --    718.5366               779.2116               796.8829
 Red. masses --      8.0819                 1.6238                 2.0063
 Frc consts  --      2.4584                 0.5809                 0.7506
 IR Inten    --     20.5808                78.6550                29.4618

                     34                     35                     36
                      A                      A                      A
 Frequencies --    828.7271               847.8238               856.5843
 Red. masses --      2.4399                 3.0937                 1.2606
 Frc consts  --      0.9873                 1.3102                 0.5450
 IR Inten    --      3.4140               144.8221                 1.0010

                     37                     38                     39
                      A                      A                      A
 Frequencies --    938.5816               948.1346               983.7095
 Red. masses --      1.3871                 3.0797                 1.3438
 Frc consts  --      0.7199                 1.6312                 0.7662
 IR Inten    --      5.8685               156.9568                 0.2698

                     40                     41                     42
                      A                      A                      A
 Frequencies --   1005.9209              1011.3490              1020.1508
 Red. masses --      7.7759                 1.2695                 6.1277
 Frc consts  --      4.6359                 0.7650                 3.7573
 IR Inten    --     29.0948                 0.3614                 0.7505

                     43                     44                     45
                      A                      A                      A
 Frequencies --   1047.7221              1063.6285              1067.1188
 Red. masses --      3.4590                 2.3580                 3.4024
 Frc consts  --      2.2371                 1.5717                 2.2828
 IR Inten    --      1.1260                15.7929               134.9818

                     46                     47                     48
                      A                      A                      A
 Frequencies --   1071.9125              1108.8910              1115.3137
 Red. masses --      1.5135                 1.5472                14.5320
 Frc consts  --      1.0246                 1.1209                10.6505
 IR Inten    --     19.0375                12.0059               390.2778

                     49                     50                     51
                      A                      A                      A
 Frequencies --   1128.6001              1168.2942              1190.4338
 Red. masses --      1.2164                 1.3648                 1.1251
 Frc consts  --      0.9128                 1.0975                 0.9394
 IR Inten    --      3.4740                 0.8564                 0.1625

                     52                     53                     54
                      A                      A                      A
 Frequencies --   1200.4140              1225.3240              1229.0476
 Red. masses --      1.1835                 3.9540                 3.4681
 Frc consts  --      1.0048                 3.4977                 3.0866
 IR Inten    --      1.1044                29.9879                11.7293

                     55                     56                     57
                      A                      A                      A
 Frequencies --   1235.7924              1286.9974              1293.8618
 Red. masses --      2.0175                 1.9906                 5.8974
 Frc consts  --      1.8153                 1.9427                 5.8169
 IR Inten    --      2.2210                29.7760               137.6400

                     58                     59                     60
                      A                      A                      A
 Frequencies --   1312.4695              1345.8092              1365.3533
 Red. masses --      8.8771                 2.6909                 2.5884
 Frc consts  --      9.0095                 2.8716                 2.8430
 IR Inten    --    231.6186               101.3451                 2.2297

                     61                     62                     63
                      A                      A                      A
 Frequencies --   1382.6987              1423.4965              1452.7497
 Red. masses --      3.3580                 2.1516                 1.1510
 Frc consts  --      3.7826                 2.5687                 1.4312
 IR Inten    --    153.3356                27.4298                 1.2344

                     64                     65                     66
                      A                      A                      A
 Frequencies --   1467.2217              1484.2594              1502.3433
 Red. masses --      1.1571                 2.5210                 1.0449
 Frc consts  --      1.4676                 3.2722                 1.3895
 IR Inten    --      1.1148                26.2228                 5.5197

                     67                     68                     69
                      A                      A                      A
 Frequencies --   1511.0777              1514.5720              1517.6695
 Red. masses --      1.0563                 2.5296                 1.0519
 Frc consts  --      1.4210                 3.4189                 1.4276
 IR Inten    --     37.8132                20.0352                11.8365

                     70                     71                     72
                      A                      A                      A
 Frequencies --   1529.9686              1549.0821              1591.9330
 Red. masses --      1.0510                 2.7526                 6.2102
 Frc consts  --      1.4495                 3.8917                 9.2727
 IR Inten    --     12.9944               133.1723                98.7188

                     73                     74                     75
                      A                      A                      A
 Frequencies --   1654.7346              1657.5311              3053.1596
 Red. masses --      6.3934                 5.6777                 1.0445
 Frc consts  --     10.3144                 9.1906                 5.7366
 IR Inten    --      9.9899                25.0442                56.1933

                     76                     77                     78
                      A                      A                      A
 Frequencies --   3063.8808              3135.0193              3138.6743
 Red. masses --      1.0406                 1.0979                 1.0969
 Frc consts  --      5.7557                 6.3579                 6.3665
 IR Inten    --     57.1278                61.5388                 3.7109

                     79                     80                     81
                      A                      A                      A
 Frequencies --   3194.4192              3203.4500              3214.3609
 Red. masses --      1.1020                 1.1005                 1.0862
 Frc consts  --      6.6252                 6.6539                 6.6125
 IR Inten    --      7.1662                 5.1692                 0.1825

                     82                     83                     84
                      A                      A                      A
 Frequencies --   3222.6492              3232.7917              3241.0101
 Red. masses --      1.0899                 1.0937                 1.0955
 Frc consts  --      6.6693                 6.7348                 6.7796
 IR Inten    --     18.6048                41.8696                10.9400

                     85                     86                     87
                      A                      A                      A
 Frequencies --   3255.0990              3337.6281              3520.6102
 Red. masses --      1.0934                 1.1002                 1.0764
 Frc consts  --      6.8258                 7.2210                 7.8604
 IR Inten    --      2.4340                 7.6662               138.3381

 - Thermochemistry -
 -------------------
 Temperature   298.150 Kelvin.  Pressure   1.00000 Atm.
 Atom     1 has atomic number  8 and mass  15.99491

 Molecular mass:   267.07900 amu.
 Principal axes and moments of inertia in atomic units:
                           1         2         3
     Eigenvalues --  1813.72596********************
           X            0.99997  -0.00784  -0.00079
           Y            0.00780   0.99927  -0.03751
           Z            0.00108   0.03750   0.99930
 This molecule is an asymmetric top.
 Rotational symmetry number  1.
 Warning -- assumption of classical behavior for rotation
           may cause significant error
 Rotational temperatures (Kelvin)      0.04775     0.00837     0.00799
 Rotational constants (GHZ):           0.99505     0.17435     0.16655
 Zero-point vibrational energy     632450.0 (Joules/Mol)
                                  151.15918 (Kcal/Mol)
 Warning -- explicit consideration of  25 degrees of freedom as
           vibrations may cause significant error
 Vibrational temperatures:     41.58    45.35    63.84   104.40   125.81
          (Kelvin)            141.59   192.77   212.41   276.91   300.83
                              367.64   382.74   395.03   428.27   472.03
                              519.75   557.67   594.56   605.80   677.15
                              685.75   703.20   755.14   771.19   810.69
                              904.09   961.77   978.34  1004.36  1015.99
                             1033.81  1121.11  1146.54  1192.35  1219.83
                             1232.43  1350.41  1364.15  1415.34  1447.30
                             1455.11  1467.77  1507.44  1530.32  1535.35
                             1542.24  1595.45  1604.69  1623.80  1680.91
                             1712.77  1727.13  1762.97  1768.33  1778.03
                             1851.70  1861.58  1888.35  1936.32  1964.44
                             1989.40  2048.09  2090.18  2111.00  2135.52
                             2161.54  2174.10  2179.13  2183.59  2201.28
                             2228.78  2290.44  2380.79  2384.82  4392.82
                             4408.24  4510.59  4515.85  4596.06  4609.05
                             4624.75  4636.67  4651.27  4663.09  4683.36
                             4802.10  5065.37

 Zero-point correction=                           0.240887 (Hartree/Particle)
 Thermal correction to Energy=                    0.257537
 Thermal correction to Enthalpy=                  0.258481
 Thermal correction to Gibbs Free Energy=         0.194810
 Sum of electronic and zero-point Energies=          -1210.946852
 Sum of electronic and thermal Energies=             -1210.930202
 Sum of electronic and thermal Enthalpies=           -1210.929258
 Sum of electronic and thermal Free Energies=        -1210.992929

                     E (Thermal)             CV                S
                      KCal/Mol        Cal/Mol-Kelvin    Cal/Mol-Kelvin
 Total                  161.607             62.673            134.007
 Electronic               0.000              0.000              0.000
 Translational            0.889              2.981             42.646
 Rotational               0.889              2.981             33.675
 Vibrational            159.829             56.712             57.686
 Vibration     1          0.593              1.984              5.904
 Vibration     2          0.594              1.983              5.731
 Vibration     3          0.595              1.980              5.054
 Vibration     4          0.599              1.967              4.083
 Vibration     5          0.601              1.958              3.716
 Vibration     6          0.604              1.950              3.486
 Vibration     7          0.613              1.919              2.888
 Vibration     8          0.617              1.905              2.702
 Vibration     9          0.634              1.850              2.204
 Vibration    10          0.642              1.827              2.052
 Vibration    11          0.666              1.753              1.692
 Vibration    12          0.672              1.735              1.622
 Vibration    13          0.677              1.720              1.567
 Vibration    14          0.691              1.678              1.430
 Vibration    15          0.711              1.619              1.270
 Vibration    16          0.735              1.552              1.117
 Vibration    17          0.756              1.497              1.009
 Vibration    18          0.777              1.441              0.915
 Vibration    19          0.784              1.424              0.888
 Vibration    20          0.828              1.315              0.736
 Vibration    21          0.833              1.302              0.719
 Vibration    22          0.845              1.275              0.687
 Vibration    23          0.880              1.195              0.599
 Vibration    24          0.891              1.170              0.574
 Vibration    25          0.919              1.110              0.517

 Optimization completed.
    -- Stationary point found.
 Normal termination of Gaussian 16 at Wed Sep 23 11:39:24 2020.

 ----------------------------------------------------------------------
 #p b3lyp/6-31G(d) scrf=(iefpcm,read,solvent=water) geom=allcheck guess
 =read
 ----------------------------------------------------------------------

 Structure from the checkpoint file:  "SM46_m0.n.3.pdb.xyz.mst.n.w.chk"
 -------------------
 SM46_m0.n.3.pdb.xyz
 -------------------
 Charge =  0 Multiplicity = 1

 SCF Done:  E(RB3LYP) =  -1211.18773848     A.U. after    5 cycles
 Normal termination of Gaussian 16 at Wed Sep 23 11:39:57 2020.

 -----------------------------
 #p B3LYP/6-31G* geom=allcheck
 -----------------------------

 Structure from the checkpoint file:  "SM46_m0.n.3.pdb.xyz.mst.n.w.chk"
 -------------------
 SM46_m0.n.3.pdb.xyz
 -------------------
 Charge =  0 Multiplicity = 1

 SCF Done:  E(RB3LYP) =  -1211.15442863     A.U. after   15 cycles
 Normal termination of Gaussian 16 at Wed Sep 23 11:40:38 2020.
 Gaussian 16:  ES64L-G16RevB.01 20-Dec-2017

 ----------------------------------------------------------------------
 #p mp2/aug-cc-pVDZ scf=(MaxCycle=2000,NoVarAcc,NoIncFock) maxdisk=120G
 B geom=allcheck
 ----------------------------------------------------------------------

 Structure from the checkpoint file:  "SM46_m0.n.3.pdb.xyz.mst.n.w.chk"
 -------------------
 SM46_m0.n.3.pdb.xyz
 -------------------
 Charge =  0 Multiplicity = 1

                         Standard orientation:
 ---------------------------------------------------------------------
 Center     Atomic      Atomic             Coordinates (Angstroms)
 Number     Number       Type             X           Y           Z
 ---------------------------------------------------------------------
      1          8           0       -4.333597   -0.245030   -0.966839
      2         16           0       -3.167491   -0.339707   -0.086809
      3          7           0       -1.871474   -0.549956   -1.178116
      4          6           0       -0.550450   -0.701395   -0.713013
      5          7           0       -0.115082   -1.865931   -0.155211
      6          7           0        1.155737   -1.749546    0.124824
      7          6           0        0.510934    0.177253   -0.790275
      8          7           0        1.553711   -0.515140   -0.268259
      9          6           0        2.909393   -0.102239   -0.111136
     10          6           0        3.429683    0.891102   -0.943196
     11          6           0        4.753672    1.293453   -0.775117
     12          6           0        5.553051    0.700637    0.203911
     13          6           0        5.021551   -0.297766    1.023855
     14          6           0        3.695407   -0.701210    0.876625
     15          7           0       -3.084222    1.100562    0.750949
     16          6           0       -2.160183    1.185342    1.891390
     17          6           0       -3.203811    2.329864   -0.044848
     18          8           0       -3.049358   -1.407888    0.904047
     19          1           0       -1.960807    0.108715   -1.953485
     20          1           0        0.590496    1.189172   -1.148117
     21          1           0        2.814938    1.334053   -1.717620
     22          1           0        5.160058    2.065308   -1.419240
     23          1           0        6.583723    1.014473    0.327045
     24          1           0        5.635968   -0.760008    1.788679
     25          1           0        3.265726   -1.464162    1.512426
     26          1           0       -2.138219    0.228999    2.409570
     27          1           0       -2.548575    1.947588    2.570798
     28          1           0       -1.146904    1.466326    1.584896
     29          1           0       -3.969873    2.195577   -0.806726
     30          1           0       -2.254534    2.612767   -0.515746
     31          1           0       -3.514683    3.129672    0.630325
 ---------------------------------------------------------------------

 SCF Done:  E(RHF) =  -1205.68935641     A.U. after   17 cycles
 E2 =    -0.2809891792D+01 EUMP2 =    -0.12084992481980D+04

 The electronic state is 1-A.
 Alpha  occ. eigenvalues --  -92.24506 -20.55873 -20.55718 -15.69313 -15.66657
 Alpha  occ. eigenvalues --  -15.63254 -15.62279 -15.62165 -11.32515 -11.32156
 Alpha  occ. eigenvalues --  -11.31236 -11.29095 -11.28282 -11.27448 -11.27157
 Alpha  occ. eigenvalues --  -11.26941 -11.26718 -11.26496  -9.20923  -6.89485
 Alpha  occ. eigenvalues --   -6.89413  -6.89403  -1.47087  -1.46165  -1.34202
 Alpha  occ. eigenvalues --   -1.27483  -1.25866  -1.23872  -1.17163  -1.09302
 Alpha  occ. eigenvalues --   -1.04906  -1.04325  -0.99174  -0.95791  -0.91060
 Alpha  occ. eigenvalues --   -0.88431  -0.84892  -0.83319  -0.80400  -0.77102
 Alpha  occ. eigenvalues --   -0.73811  -0.71988  -0.70190  -0.69355  -0.67449
 Alpha  occ. eigenvalues --   -0.67337  -0.66112  -0.65126  -0.63993  -0.62854
 Alpha  occ. eigenvalues --   -0.61770  -0.61128  -0.58825  -0.57955  -0.55029
 Alpha  occ. eigenvalues --   -0.54594  -0.54073  -0.53833  -0.52494  -0.50829
 Alpha  occ. eigenvalues --   -0.50735  -0.49352  -0.48214  -0.46878  -0.45165
 Alpha  occ. eigenvalues --   -0.44683  -0.41757  -0.36967  -0.36518  -0.33510
 Alpha virt. eigenvalues --    0.01725   0.02789   0.03218   0.03905   0.04321
 Alpha virt. eigenvalues --    0.04845   0.05409   0.05848   0.06736   0.06965
 Alpha virt. eigenvalues --    0.07213   0.07670   0.08401   0.08408   0.09058

 Mulliken charges:
               1
     1  O   -1.085177
     2  S    2.737865
     3  N   -0.715190
     4  C    0.870605
     5  N   -0.575056
     6  N   -0.459763
     7  C    0.989047
     8  N   -0.651144
     9  C    0.882466
    10  C    0.006501
    11  C    0.773197
    12  C    0.620526
    13  C    0.601535
    14  C    0.488910
    15  N   -1.128662
    16  C    0.939677
    17  C    0.711974
    18  O   -1.104795
    19  H   -0.038775
    20  H   -0.594292
    21  H   -0.669455
    22  H   -0.447027
    23  H   -0.445317
    24  H   -0.429648
    25  H   -0.539211
    26  H   -0.188641
    27  H   -0.185196
    28  H   -0.035849
    29  H   -0.133507
    30  H   -0.046828
    31  H   -0.148774
 Sum of Mulliken charges =  -0.00000

 Dipole moment (field-independent basis, Debye):
    X=              6.3968    Y=              8.1861    Z=             -0.6681  Tot=             10.4105
 Quadrupole moment (field-independent basis, Debye-Ang):
   XX=           -120.7747   YY=           -117.9573   ZZ=           -108.3993
   XY=            -11.4610   XZ=             -0.4018   YZ=             -3.3581

 Normal termination of Gaussian 16 at Wed Sep 23 12:25:41 2020.
