 Gaussian 16, Revision B.01,

 ----------------------------------------------------------------------
 #p b3lyp/6-31G(d) opt freq NoSymm scf=(MaxCycle=2000,NoVarAcc,NoIncFoc
 k) scrf=(iefpcm,read,solvent=water)
 ----------------------------------------------------------------------

 -------------------
 SM46_m1.a.4.pdb.xyz
 -------------------
 Symbolic Z-matrix:
 Charge = -1 Multiplicity = 1

 SCF Done:  E(RB3LYP) =  -1210.71556444     A.U. after   13 cycles
 SCF Done:  E(RB3LYP) =  -1210.71538263     A.U. after   10 cycles
 SCF Done:  E(RB3LYP) =  -1210.71542698     A.U. after   10 cycles
 SCF Done:  E(RB3LYP) =  -1210.71556318     A.U. after   10 cycles
 SCF Done:  E(RB3LYP) =  -1210.71557026     A.U. after    9 cycles
 SCF Done:  E(RB3LYP) =  -1210.71541256     A.U. after   11 cycles
 SCF Done:  E(RB3LYP) =  -1210.71538367     A.U. after   10 cycles
 SCF Done:  E(RB3LYP) =  -1210.71555924     A.U. after   11 cycles
 SCF Done:  E(RB3LYP) =  -1210.71557021     A.U. after    9 cycles
 SCF Done:  E(RB3LYP) =  -1210.71537754     A.U. after   11 cycles
 SCF Done:  E(RB3LYP) =  -1210.71556940     A.U. after    9 cycles
 SCF Done:  E(RB3LYP) =  -1210.71537571     A.U. after   11 cycles
 SCF Done:  E(RB3LYP) =  -1210.71537465     A.U. after    7 cycles
 SCF Done:  E(RB3LYP) =  -1210.71555550     A.U. after   11 cycles
 SCF Done:  E(RB3LYP) =  -1210.71556935     A.U. after    9 cycles
 SCF Done:  E(RB3LYP) =  -1210.71537449     A.U. after   11 cycles
 Optimization completed.
    -- Stationary point found.
 Normal termination of Gaussian 16 at Thu Sep 24 17:20:24 2020.

 --------------------------------------------------------------------
 #P Geom=AllCheck Guess=TCheck SCRF=Check GenChk RB3LYP/6-31G(d) Freq
 --------------------------------------------------------------------

 Structure from the checkpoint file:  "SM46_m1.a.4.pdb.xyz.mst.a.w.chk"
 -------------------
 SM46_m1.a.4.pdb.xyz
 -------------------
 Charge = -1 Multiplicity = 1

 SCF Done:  E(RB3LYP) =  -1210.71537449     A.U. after    1 cycles

  Exact polarizability: 313.006   3.366 191.912  32.377 -43.729 161.621
 Approx polarizability: 328.756   6.987 233.336  40.669 -63.674 196.803

                      1                      2                      3
                      A                      A                      A
 Frequencies --     28.3041                36.3087                55.9865
 Red. masses --      4.6574                 4.2170                 5.6666
 Frc consts  --      0.0022                 0.0033                 0.0105
 IR Inten    --      6.9717                 3.2162                 9.1425

                      4                      5                      6
                      A                      A                      A
 Frequencies --     65.1287                84.0374                88.8630
 Red. masses --      3.4667                 4.6569                 5.3235
 Frc consts  --      0.0087                 0.0194                 0.0248
 IR Inten    --      2.9048                 1.0840                 4.2929

                      7                      8                      9
                      A                      A                      A
 Frequencies --    167.1138               187.2293               226.3085
 Red. masses --      5.9078                 3.7812                 1.1191
 Frc consts  --      0.0972                 0.0781                 0.0338
 IR Inten    --     11.5117                 3.4126                 0.7803

                     10                     11                     12
                      A                      A                      A
 Frequencies --    232.5130               254.4268               268.3281
 Red. masses --      1.1992                 4.4466                 3.2661
 Frc consts  --      0.0382                 0.1696                 0.1386
 IR Inten    --      0.4255                 4.4883                 0.6456

                     13                     14                     15
                      A                      A                      A
 Frequencies --    285.3255               333.0358               345.8533
 Red. masses --      8.9980                 7.0602                 3.1515
 Frc consts  --      0.4316                 0.4614                 0.2221
 IR Inten    --      2.9229                 4.9188                10.3266

                     16                     17                     18
                      A                      A                      A
 Frequencies --    370.5951               395.6663               401.0905
 Red. masses --      7.2898                 6.9954                 5.5670
 Frc consts  --      0.5899                 0.6452                 0.5277
 IR Inten    --      2.7190                 8.9295                15.5738

                     19                     20                     21
                      A                      A                      A
 Frequencies --    419.7106               456.8080               486.5055
 Red. masses --      3.0740                 6.4029                 4.6113
 Frc consts  --      0.3190                 0.7872                 0.6431
 IR Inten    --      0.3679                 7.3931                34.2483

                     22                     23                     24
                      A                      A                      A
 Frequencies --    500.9411               530.8985               569.5810
 Red. masses --      5.8809                 3.6675                11.5348
 Frc consts  --      0.8695                 0.6090                 2.2048
 IR Inten    --      1.1415                 6.5135               150.5543

                     25                     26                     27
                      A                      A                      A
 Frequencies --    628.8853               645.2253               664.0826
 Red. masses --      6.4276                 8.2011                 3.9598
 Frc consts  --      1.4978                 2.0116                 1.0289
 IR Inten    --      1.7017               402.3621                13.4472

                     28                     29                     30
                      A                      A                      A
 Frequencies --    688.9008               700.5183               706.1962
 Red. masses --      7.5246                 2.3605                 2.3121
 Frc consts  --      2.1040                 0.6825                 0.6794
 IR Inten    --     36.9388                14.7508                32.8094

                     31                     32                     33
                      A                      A                      A
 Frequencies --    741.1734               745.5468               779.0232
 Red. masses --      3.1724                 5.0364                 1.6257
 Frc consts  --      1.0268                 1.6494                 0.5813
 IR Inten    --     44.7224                81.4672                66.1588

                     34                     35                     36
                      A                      A                      A
 Frequencies --    855.5706               931.0217               932.4802
 Red. masses --      1.2503                 1.4218                 3.9933
 Frc consts  --      0.5392                 0.7261                 2.0458
 IR Inten    --      0.2183                 2.4121               238.7132

                     37                     38                     39
                      A                      A                      A
 Frequencies --    942.2391               982.4993              1003.9622
 Red. masses --      6.5541                 1.3367                 7.9780
 Frc consts  --      3.4284                 0.7603                 4.7378
 IR Inten    --    127.8748                 0.2419                59.7805

                     40                     41                     42
                      A                      A                      A
 Frequencies --   1009.8884              1018.4125              1051.7662
 Red. masses --      1.2574                 6.0419                 2.8509
 Frc consts  --      0.7556                 3.6921                 1.8581
 IR Inten    --      0.3360                 5.2342                56.6037

                     43                     44                     45
                      A                      A                      A
 Frequencies --   1057.0279              1058.9753              1072.8927
 Red. masses --      2.8764                 1.5475                 3.2178
 Frc consts  --      1.8936                 1.0225                 2.1823
 IR Inten    --    106.7497                18.3120               241.7413

                     46                     47                     48
                      A                      A                      A
 Frequencies --   1096.2641              1113.4704              1123.9090
 Red. masses --      5.9054                 1.7573                 1.2213
 Frc consts  --      4.1815                 1.2836                 0.9089
 IR Inten    --    281.1001                86.2652                 4.9796

                     49                     50                     51
                      A                      A                      A
 Frequencies --   1173.9345              1188.9352              1205.5208
 Red. masses --      1.4308                 1.0999                 1.2459
 Frc consts  --      1.1618                 0.9161                 1.0668
 IR Inten    --      6.9302                 0.7069                 0.5079

                     52                     53                     54
                      A                      A                      A
 Frequencies --   1209.8553              1225.2548              1228.5945
 Red. masses --      4.3271                 4.6816                 7.5054
 Frc consts  --      3.7317                 4.1409                 6.6748
 IR Inten    --      8.3722                22.9885               450.5627

                     55                     56                     57
                      A                      A                      A
 Frequencies --   1257.4732              1261.9949              1280.5065
 Red. masses --      3.3128                 1.9076                 4.0132
 Frc consts  --      3.0863                 1.7900                 3.8771
 IR Inten    --     54.2018                 9.8587               290.4903

                     58                     59                     60
                      A                      A                      A
 Frequencies --   1333.5755              1367.2965              1377.1645
 Red. masses --      3.7690                 2.9181                 2.8445
 Frc consts  --      3.9493                 3.2142                 3.1786
 IR Inten    --    113.5385                 2.4125               263.7330

                     61                     62                     63
                      A                      A                      A
 Frequencies --   1443.0521              1449.5443              1457.8050
 Red. masses --      1.1508                 3.9682                 1.2193
 Frc consts  --      1.4119                 4.9125                 1.5267
 IR Inten    --      0.6019               172.8470                 7.2854

                     64                     65                     66
                      A                      A                      A
 Frequencies --   1501.9141              1511.1523              1512.8120
 Red. masses --      1.0484                 1.0647                 2.4678
 Frc consts  --      1.3933                 1.4326                 3.3275
 IR Inten    --     12.3030                36.9090                19.7465

                     67                     68                     69
                      A                      A                      A
 Frequencies --   1518.1438              1527.7027              1545.8987
 Red. masses --      1.0476                 1.0465                 2.7622
 Frc consts  --      1.4226                 1.4390                 3.8893
 IR Inten    --      4.8273                17.1345               455.0550

                     70                     71                     72
                      A                      A                      A
 Frequencies --   1574.5545              1651.8378              1659.7120
 Red. masses --      5.9951                 6.3306                 5.6599
 Frc consts  --      8.7571                10.1772                 9.1859
 IR Inten    --    384.0613                 7.5587                50.7853

                     73                     74                     75
                      A                      A                      A
 Frequencies --   3020.7215              3023.5888              3115.0301
 Red. masses --      1.0504                 1.0529                 1.0870
 Frc consts  --      5.6471                 5.6713                 6.2143
 IR Inten    --     47.3092               125.2230                50.1121

                     76                     77                     78
                      A                      A                      A
 Frequencies --   3117.2909              3182.1066              3185.2666
 Red. masses --      1.0866                 1.0999                 1.0995
 Frc consts  --      6.2212                 6.5620                 6.5723
 IR Inten    --     50.2800                16.7140                16.2867

                     79                     80                     81
                      A                      A                      A
 Frequencies --   3208.8796              3217.3108              3229.1233
 Red. masses --      1.0864                 1.0900                 1.0944
 Frc consts  --      6.5909                 6.6474                 6.7237
 IR Inten    --      2.7543                21.4923                46.8461

                     82                     83                     84
                      A                      A                      A
 Frequencies --   3241.4234              3258.4973              3363.9881
 Red. masses --      1.0943                 1.0923                 1.0975
 Frc consts  --      6.7742                 6.8335                 7.3173
 IR Inten    --     11.0593                 2.5915                 9.2087

 - Thermochemistry -
 -------------------
 Temperature   298.150 Kelvin.  Pressure   1.00000 Atm.
 Atom     1 has atomic number  8 and mass  15.99491

 Molecular mass:   266.07117 amu.
 Principal axes and moments of inertia in atomic units:
                           1         2         3
     Eigenvalues --  1811.14132********************
           X            0.99980   0.00240  -0.01978
           Y            0.01587  -0.69588   0.71798
           Z            0.01204   0.71815   0.69578
 This molecule is an asymmetric top.
 Rotational symmetry number  1.
 Warning -- assumption of classical behavior for rotation
           may cause significant error
 Rotational temperatures (Kelvin)      0.04782     0.00851     0.00817
 Rotational constants (GHZ):           0.99647     0.17728     0.17032
 Zero-point vibrational energy     597941.1 (Joules/Mol)
                                  142.91136 (Kcal/Mol)
 Warning -- explicit consideration of  24 degrees of freedom as
           vibrations may cause significant error
 Vibrational temperatures:     40.72    52.24    80.55    93.71   120.91
          (Kelvin)            127.85   240.44   269.38   325.61   334.53
                              366.06   386.06   410.52   479.16   497.61
                              533.20   569.28   577.08   603.87   657.24
                              699.97   720.74   763.84   819.50   904.83
                              928.34   955.47   991.17  1007.89  1016.06
                             1066.38  1072.68  1120.84  1230.98  1339.53
                             1341.63  1355.67  1413.60  1444.48  1453.00
                             1465.27  1513.26  1520.83  1523.63  1543.65
                             1577.28  1602.04  1617.05  1689.03  1710.61
                             1734.48  1740.71  1762.87  1767.67  1809.22
                             1815.73  1842.36  1918.72  1967.23  1981.43
                             2076.23  2085.57  2097.46  2160.92  2174.21
                             2176.60  2184.27  2198.02  2224.20  2265.43
                             2376.63  2387.96  4346.14  4350.27  4481.83
                             4485.09  4578.34  4582.89  4616.86  4628.99
                             4645.99  4663.69  4688.25  4840.03

 Zero-point correction=                           0.227744 (Hartree/Particle)
 Thermal correction to Energy=                    0.243954
 Thermal correction to Enthalpy=                  0.244898
 Thermal correction to Gibbs Free Energy=         0.182377
 Sum of electronic and zero-point Energies=          -1210.487631
 Sum of electronic and thermal Energies=             -1210.471420
 Sum of electronic and thermal Enthalpies=           -1210.470476
 Sum of electronic and thermal Free Energies=        -1210.532997

                     E (Thermal)             CV                S
                      KCal/Mol        Cal/Mol-Kelvin    Cal/Mol-Kelvin
 Total                  153.083             61.449            131.586
 Electronic               0.000              0.000              0.000
 Translational            0.889              2.981             42.635
 Rotational               0.889              2.981             33.635
 Vibrational            151.306             55.487             55.317
 Vibration     1          0.593              1.984              5.945
 Vibration     2          0.594              1.982              5.451
 Vibration     3          0.596              1.975              4.594
 Vibration     4          0.597              1.971              4.295
 Vibration     5          0.601              1.960              3.794
 Vibration     6          0.602              1.957              3.685
 Vibration     7          0.624              1.883              2.468
 Vibration     8          0.632              1.857              2.255
 Vibration     9          0.650              1.801              1.908
 Vibration    10          0.653              1.791              1.859
 Vibration    11          0.665              1.755              1.700
 Vibration    12          0.673              1.731              1.607
 Vibration    13          0.683              1.701              1.502
 Vibration    14          0.715              1.610              1.245
 Vibration    15          0.724              1.584              1.185
 Vibration    16          0.743              1.533              1.077
 Vibration    17          0.762              1.479              0.979
 Vibration    18          0.767              1.468              0.959
 Vibration    19          0.782              1.427              0.893
 Vibration    20          0.815              1.346              0.775
 Vibration    21          0.843              1.280              0.693
 Vibration    22          0.856              1.248              0.656
 Vibration    23          0.886              1.182              0.585
 Vibration    24          0.926              1.097              0.505

                           ! Non-Optimized Parameters !
 Normal termination of Gaussian 16 at Thu Sep 24 17:27:56 2020.

 ----------------------------------------------------------------------
 #p b3lyp/6-31G(d) scrf=(iefpcm,read,solvent=water) geom=allcheck guess
 =read
 ----------------------------------------------------------------------

 Structure from the checkpoint file:  "SM46_m1.a.4.pdb.xyz.mst.a.w.chk"
 -------------------
 SM46_m1.a.4.pdb.xyz
 -------------------
 Charge = -1 Multiplicity = 1

 SCF Done:  E(RB3LYP) =  -1210.71533108     A.U. after    7 cycles
 Normal termination of Gaussian 16 at Thu Sep 24 17:28:30 2020.

 -----------------------------
 #p B3LYP/6-31G* geom=allcheck
 -----------------------------

 Structure from the checkpoint file:  "SM46_m1.a.4.pdb.xyz.mst.a.w.chk"
 -------------------
 SM46_m1.a.4.pdb.xyz
 -------------------
 Charge = -1 Multiplicity = 1

 SCF Done:  E(RB3LYP) =  -1210.61741578     A.U. after   15 cycles
 Normal termination of Gaussian 16 at Thu Sep 24 17:29:07 2020.
 Gaussian 16:  ES64L-G16RevB.01 20-Dec-2017

 ----------------------------------------------------------------------
 #p mp2/aug-cc-pVDZ scf=(MaxCycle=2000,NoVarAcc,NoIncFock) maxdisk=120G
 B geom=allcheck
 ----------------------------------------------------------------------

 Structure from the checkpoint file:  "SM46_m1.a.4.pdb.xyz.mst.a.w.chk"
 -------------------
 SM46_m1.a.4.pdb.xyz
 -------------------
 Charge = -1 Multiplicity = 1

                         Standard orientation:
 ---------------------------------------------------------------------
 Center     Atomic      Atomic             Coordinates (Angstroms)
 Number     Number       Type             X           Y           Z
 ---------------------------------------------------------------------
      1          8           0       -4.005066   -0.347005   -1.423045
      2         16           0       -2.795116   -0.439467   -0.576457
      3          7           0       -1.960497    0.908716   -0.768638
      4          6           0       -0.596373    0.921154   -0.544453
      5          7           0        0.040323    2.142010   -0.490691
      6          7           0        1.328872    1.961492   -0.313186
      7          6           0        0.380563   -0.057598   -0.390534
      8          7           0        1.547726    0.634910   -0.242918
      9          6           0        2.859493    0.125209   -0.051671
     10          6           0        3.853914    0.957789    0.472287
     11          6           0        5.139993    0.454878    0.654507
     12          6           0        5.436341   -0.871562    0.330755
     13          6           0        4.434903   -1.695204   -0.186711
     14          6           0        3.146216   -1.201390   -0.385616
     15          7           0       -3.444129   -0.533077    1.024921
     16          6           0       -2.415240   -0.679164    2.061405
     17          6           0       -4.375326    0.557603    1.335072
     18          8           0       -1.995009   -1.685989   -0.696234
     19          1           0        0.318899   -1.128698   -0.357322
     20          1           0        3.609430    1.979585    0.729909
     21          1           0        5.910262    1.102178    1.060349
     22          1           0        6.438133   -1.259186    0.480614
     23          1           0        4.654053   -2.725297   -0.446061
     24          1           0        2.375789   -1.836233   -0.805976
     25          1           0       -1.740478   -1.490623    1.791381
     26          1           0       -2.914347   -0.931433    3.000773
     27          1           0       -1.833620    0.241170    2.216499
     28          1           0       -5.130248    0.622076    0.552763
     29          1           0       -3.872161    1.530342    1.434977
     30          1           0       -4.866228    0.322891    2.282976
 ---------------------------------------------------------------------

 SCF Done:  E(RHF) =  -1205.15122369     A.U. after   17 cycles
 E2 =    -0.2827181045D+01 EUMP2 =    -0.12079784047342D+04

 The electronic state is 1-A.
 Alpha  occ. eigenvalues --  -92.06376 -20.39086 -20.38138 -15.55008 -15.52397
 Alpha  occ. eigenvalues --  -15.47170 -15.45759 -15.38673 -11.21429 -11.17417
 Alpha  occ. eigenvalues --  -11.17336 -11.16880 -11.16704 -11.16626 -11.16316
 Alpha  occ. eigenvalues --  -11.14326 -11.13846 -11.13840  -9.02799  -6.71386
 Alpha  occ. eigenvalues --   -6.71295  -6.71253  -1.31561  -1.28812  -1.16108
 Alpha  occ. eigenvalues --   -1.12425  -1.09417  -1.06494  -1.03998  -0.95063
 Alpha  occ. eigenvalues --   -0.93902  -0.91858  -0.84092  -0.79021  -0.78106
 Alpha  occ. eigenvalues --   -0.76191  -0.70748  -0.69042  -0.64887  -0.62284
 Alpha  occ. eigenvalues --   -0.58859  -0.56590  -0.55541  -0.54372  -0.53058
 Alpha  occ. eigenvalues --   -0.52547  -0.51533  -0.50875  -0.50014  -0.49373
 Alpha  occ. eigenvalues --   -0.46015  -0.44346  -0.43969  -0.43283  -0.43000
 Alpha  occ. eigenvalues --   -0.42693  -0.39864  -0.38917  -0.36398  -0.34737
 Alpha  occ. eigenvalues --   -0.33221  -0.31583  -0.30988  -0.30427  -0.29235
 Alpha  occ. eigenvalues --   -0.26755  -0.26401  -0.25395  -0.23352  -0.15093
 Alpha virt. eigenvalues --    0.08869   0.10029   0.11089   0.11633   0.13035
 Alpha virt. eigenvalues --    0.13230   0.14041   0.15187   0.15260   0.16069
 Alpha virt. eigenvalues --    0.16456   0.17617   0.17814   0.18081   0.18561

 Mulliken charges:
               1
     1  O   -1.185126
     2  S    2.959520
     3  N   -1.164822
     4  C    0.512094
     5  N   -0.720312
     6  N   -0.473585
     7  C    1.015454
     8  N   -0.668950
     9  C    0.706055
    10  C    0.768566
    11  C    0.506449
    12  C    0.675480
    13  C    0.598013
    14  C    0.310115
    15  N   -1.111306
    16  C    0.759651
    17  C    0.718270
    18  O   -1.264999
    19  H   -0.692248
    20  H   -0.537072
    21  H   -0.455785
    22  H   -0.462715
    23  H   -0.467067
    24  H   -0.643861
    25  H   -0.133991
    26  H   -0.226574
    27  H    0.004978
    28  H   -0.137643
    29  H   -0.012813
    30  H   -0.175776
 Sum of Mulliken charges =  -1.00000

 Dipole moment (field-independent basis, Debye):
    X=              9.7358    Y=             -2.2133    Z=              5.7528  Tot=             11.5230
 Quadrupole moment (field-independent basis, Debye-Ang):
   XX=           -154.8368   YY=           -133.9722   ZZ=           -125.4737
   XY=             -9.5962   XZ=            -15.1892   YZ=              3.3440

 Normal termination of Gaussian 16 at Thu Sep 24 18:02:04 2020.
