 Gaussian 16, Revision B.01,

 ----------------------------------------------------------------------
 #p b3lyp/6-31G(d) opt freq NoSymm scf=(MaxCycle=2000,NoVarAcc,NoIncFoc
 k) scrf=(iefpcm,read,solvent=water)
 ----------------------------------------------------------------------

 -------------------
 SM46_m1.a.8.pdb.xyz
 -------------------
 Symbolic Z-matrix:
 Charge = -1 Multiplicity = 1

 SCF Done:  E(RB3LYP) =  -1210.71559040     A.U. after   13 cycles
 SCF Done:  E(RB3LYP) =  -1210.71525889     A.U. after   10 cycles
 SCF Done:  E(RB3LYP) =  -1210.71538578     A.U. after   10 cycles
 SCF Done:  E(RB3LYP) =  -1210.71559123     A.U. after   10 cycles
 SCF Done:  E(RB3LYP) =  -1210.71539741     A.U. after   10 cycles
 SCF Done:  E(RB3LYP) =  -1210.71530822     A.U. after   10 cycles
 SCF Done:  E(RB3LYP) =  -1210.71557112     A.U. after   10 cycles
 SCF Done:  E(RB3LYP) =  -1210.71559105     A.U. after    9 cycles
 SCF Done:  E(RB3LYP) =  -1210.71530580     A.U. after   11 cycles
 SCF Done:  E(RB3LYP) =  -1210.71533768     A.U. after    9 cycles
 SCF Done:  E(RB3LYP) =  -1210.71554825     A.U. after    4 cycles
 SCF Done:  E(RB3LYP) =  -1210.71554822     A.U. after    4 cycles
 SCF Done:  E(RB3LYP) =  -1210.71554820     A.U. after    2 cycles
 SCF Done:  E(RB3LYP) =  -1210.71533811     A.U. after   10 cycles
 SCF Done:  E(RB3LYP) =  -1210.71531461     A.U. after    8 cycles
 SCF Done:  E(RB3LYP) =  -1210.71531935     A.U. after    7 cycles
 Optimization completed.
    -- Stationary point found.
 Normal termination of Gaussian 16 at Thu Sep 24 17:07:54 2020.

 --------------------------------------------------------------------
 #P Geom=AllCheck Guess=TCheck SCRF=Check GenChk RB3LYP/6-31G(d) Freq
 --------------------------------------------------------------------

 Structure from the checkpoint file:  "SM46_m1.a.8.pdb.xyz.mst.a.w.chk"
 -------------------
 SM46_m1.a.8.pdb.xyz
 -------------------
 Charge = -1 Multiplicity = 1

 SCF Done:  E(RB3LYP) =  -1210.71531935     A.U. after    1 cycles

  Exact polarizability: 317.433 -14.674 218.082  10.301 -26.949 130.739
 Approx polarizability: 334.211 -16.372 275.734  15.921 -33.852 148.730

                      1                      2                      3
                      A                      A                      A
 Frequencies --     28.8310                33.4792                58.3212
 Red. masses --      4.2337                 4.5320                 5.9415
 Frc consts  --      0.0021                 0.0030                 0.0119
 IR Inten    --      4.9718                 2.8820                13.3812

                      4                      5                      6
                      A                      A                      A
 Frequencies --     60.8253                82.5628                90.1950
 Red. masses --      2.9804                 6.0434                 5.0342
 Frc consts  --      0.0065                 0.0243                 0.0241
 IR Inten    --      2.2430                 1.2587                 5.1105

                      7                      8                      9
                      A                      A                      A
 Frequencies --    171.5959               188.3977               225.3949
 Red. masses --      6.1864                 3.9533                 1.1052
 Frc consts  --      0.1073                 0.0827                 0.0331
 IR Inten    --     10.1789                 3.9993                 1.3528

                     10                     11                     12
                      A                      A                      A
 Frequencies --    236.5240               253.6173               273.6561
 Red. masses --      1.3382                 3.4548                 3.0459
 Frc consts  --      0.0441                 0.1309                 0.1344
 IR Inten    --      1.3293                 4.8776                 0.3154

                     13                     14                     15
                      A                      A                      A
 Frequencies --    285.7965               337.7918               348.0246
 Red. masses --      9.7465                 7.9467                 2.9878
 Frc consts  --      0.4690                 0.5342                 0.2132
 IR Inten    --      2.5419                 5.6219                 7.7318

                     16                     17                     18
                      A                      A                      A
 Frequencies --    366.9433               395.8402               404.7822
 Red. masses --      6.4027                 7.3077                 5.8948
 Frc consts  --      0.5079                 0.6746                 0.5691
 IR Inten    --      5.4874                 6.0257                15.1580

                     19                     20                     21
                      A                      A                      A
 Frequencies --    419.5260               457.3506               489.0577
 Red. masses --      3.0594                 6.3779                 4.6938
 Frc consts  --      0.3173                 0.7860                 0.6614
 IR Inten    --      0.3844                 5.7487                35.8409

                     22                     23                     24
                      A                      A                      A
 Frequencies --    499.1546               531.3871               570.2748
 Red. masses --      5.5885                 3.7296                11.7557
 Frc consts  --      0.8204                 0.6205                 2.2525
 IR Inten    --      5.1219                 2.8635               149.5247

                     25                     26                     27
                      A                      A                      A
 Frequencies --    628.9431               648.1066               667.2541
 Red. masses --      6.4332                 8.2270                 4.5465
 Frc consts  --      1.4993                 2.0360                 1.1926
 IR Inten    --      0.2745               391.7338                11.0599

                     28                     29                     30
                      A                      A                      A
 Frequencies --    689.6995               703.4523               705.5393
 Red. masses --      7.4066                 2.5972                 2.3614
 Frc consts  --      2.0758                 0.7572                 0.6926
 IR Inten    --     35.6328                14.7733                30.1294

                     31                     32                     33
                      A                      A                      A
 Frequencies --    738.1827               755.5498               778.5241
 Red. masses --      2.8099                 4.0019                 1.6292
 Frc consts  --      0.9021                 1.3460                 0.5818
 IR Inten    --     48.7275                92.3726                59.9691

                     34                     35                     36
                      A                      A                      A
 Frequencies --    854.3396               930.0108               934.2193
 Red. masses --      1.2529                 1.4055                 4.8941
 Frc consts  --      0.5388                 0.7162                 2.5166
 IR Inten    --      0.3351                11.0445               263.6727

                     37                     38                     39
                      A                      A                      A
 Frequencies --    942.9123               982.5477              1003.7127
 Red. masses --      5.2382                 1.3393                 7.5798
 Frc consts  --      2.7440                 0.7618                 4.4991
 IR Inten    --    102.4316                 0.3621                54.2921

                     40                     41                     42
                      A                      A                      A
 Frequencies --   1008.3730              1018.3621              1050.8458
 Red. masses --      1.2589                 6.0517                 2.7551
 Frc consts  --      0.7542                 3.6977                 1.7925
 IR Inten    --      0.7610                 4.8274                80.6845

                     43                     44                     45
                      A                      A                      A
 Frequencies --   1055.0588              1061.8374              1072.3823
 Red. masses --      2.6526                 1.5341                 3.5737
 Frc consts  --      1.7397                 1.0191                 2.4214
 IR Inten    --     83.3575                18.0016               237.5563

                     46                     47                     48
                      A                      A                      A
 Frequencies --   1095.2279              1111.4819              1124.5975
 Red. masses --      5.6519                 1.7797                 1.2213
 Frc consts  --      3.9944                 1.2954                 0.9100
 IR Inten    --    281.5594                93.4380                 5.2596

                     49                     50                     51
                      A                      A                      A
 Frequencies --   1174.6577              1187.8187              1201.9686
 Red. masses --      1.4287                 1.0993                 1.2219
 Frc consts  --      1.1615                 0.9138                 1.0401
 IR Inten    --      6.4664                 0.9636                 0.0731

                     52                     53                     54
                      A                      A                      A
 Frequencies --   1212.4706              1226.4912              1229.4035
 Red. masses --      4.6426                 4.8810                 6.9080
 Frc consts  --      4.0212                 4.3260                 6.1516
 IR Inten    --     14.0882                41.2182               411.1150

                     55                     56                     57
                      A                      A                      A
 Frequencies --   1255.5275              1264.8950              1278.2774
 Red. masses --      3.3246                 1.8910                 4.4332
 Frc consts  --      3.0878                 1.7826                 4.2680
 IR Inten    --     67.2263                10.3977               298.8721

                     58                     59                     60
                      A                      A                      A
 Frequencies --   1334.0562              1367.4303              1377.0662
 Red. masses --      3.6767                 2.8240                 3.0054
 Frc consts  --      3.8553                 3.1112                 3.3578
 IR Inten    --    111.7677                 0.8030               266.2784

                     61                     62                     63
                      A                      A                      A
 Frequencies --   1444.5438              1450.3282              1460.2213
 Red. masses --      1.1526                 4.1156                 1.2090
 Frc consts  --      1.4171                 5.1005                 1.5188
 IR Inten    --      0.4837               175.8204                 4.4899

                     64                     65                     66
                      A                      A                      A
 Frequencies --   1502.9863              1510.6014              1512.5165
 Red. masses --      1.0477                 1.0607                 2.4844
 Frc consts  --      1.3944                 1.4261                 3.3486
 IR Inten    --     12.1492                37.9538                20.7004

                     67                     68                     69
                      A                      A                      A
 Frequencies --   1518.1743              1527.8023              1545.8716
 Red. masses --      1.0474                 1.0466                 2.8134
 Frc consts  --      1.4224                 1.4393                 3.9612
 IR Inten    --      6.1296                14.5018               471.0089

                     70                     71                     72
                      A                      A                      A
 Frequencies --   1573.6391              1652.2317              1660.2293
 Red. masses --      5.9226                 6.3481                 5.7020
 Frc consts  --      8.6412                10.2102                 9.2601
 IR Inten    --    359.7989                 6.9636                52.3774

                     73                     74                     75
                      A                      A                      A
 Frequencies --   3021.4275              3024.1433              3115.1301
 Red. masses --      1.0504                 1.0528                 1.0863
 Frc consts  --      5.6496                 5.6731                 6.2110
 IR Inten    --     45.3318               127.9760                69.3842

                     76                     77                     78
                      A                      A                      A
 Frequencies --   3117.7150              3183.3255              3186.2402
 Red. masses --      1.0874                 1.0996                 1.0993
 Frc consts  --      6.2277                 6.5651                 6.5754
 IR Inten    --     33.1514                16.5362                16.0043

                     79                     80                     81
                      A                      A                      A
 Frequencies --   3208.2632              3217.1627              3228.7721
 Red. masses --      1.0862                 1.0903                 1.0951
 Frc consts  --      6.5873                 6.6491                 6.7262
 IR Inten    --      0.4233                24.7012                47.9640

                     82                     83                     84
                      A                      A                      A
 Frequencies --   3242.0991              3256.6087              3365.6400
 Red. masses --      1.0936                 1.0926                 1.0975
 Frc consts  --      6.7729                 6.8274                 7.3249
 IR Inten    --      9.7125                 2.6456                 9.6651

 - Thermochemistry -
 -------------------
 Temperature   298.150 Kelvin.  Pressure   1.00000 Atm.
 Atom     1 has atomic number  8 and mass  15.99491

 Molecular mass:   266.07117 amu.
 Principal axes and moments of inertia in atomic units:
                           1         2         3
     Eigenvalues --  1787.45699********************
           X            0.99999  -0.00142  -0.00473
           Y            0.00308   0.92893   0.37025
           Z            0.00387  -0.37026   0.92892
 This molecule is an asymmetric top.
 Rotational symmetry number  1.
 Warning -- assumption of classical behavior for rotation
           may cause significant error
 Rotational temperatures (Kelvin)      0.04846     0.00857     0.00812
 Rotational constants (GHZ):           1.00967     0.17862     0.16928
 Zero-point vibrational energy     598170.1 (Joules/Mol)
                                  142.96608 (Kcal/Mol)
 Warning -- explicit consideration of  24 degrees of freedom as
           vibrations may cause significant error
 Vibrational temperatures:     41.48    48.17    83.91    87.51   118.79
          (Kelvin)            129.77   246.89   271.06   324.29   340.31
                              364.90   393.73   411.20   486.01   500.73
                              527.95   569.53   582.39   603.60   658.03
                              703.64   718.17   764.55   820.50   904.91
                              932.48   960.03   992.32  1012.11  1015.11
                             1062.08  1087.07  1120.12  1229.20  1338.08
                             1344.13  1356.64  1413.67  1444.12  1450.82
                             1465.20  1511.93  1517.99  1527.75  1542.92
                             1575.79  1599.17  1618.04  1690.07  1709.01
                             1729.36  1744.47  1764.65  1768.84  1806.42
                             1819.90  1839.16  1919.41  1967.43  1981.29
                             2078.38  2086.70  2100.93  2162.46  2173.42
                             2176.17  2184.31  2198.17  2224.16  2264.12
                             2377.19  2388.70  4347.16  4351.07  4481.98
                             4485.70  4580.10  4584.29  4615.98  4628.78
                             4645.48  4664.66  4685.53  4842.41

 Zero-point correction=                           0.227831 (Hartree/Particle)
 Thermal correction to Energy=                    0.244015
 Thermal correction to Enthalpy=                  0.244959
 Thermal correction to Gibbs Free Energy=         0.182438
 Sum of electronic and zero-point Energies=          -1210.487488
 Sum of electronic and thermal Energies=             -1210.471305
 Sum of electronic and thermal Enthalpies=           -1210.470360
 Sum of electronic and thermal Free Energies=        -1210.532881

                     E (Thermal)             CV                S
                      KCal/Mol        Cal/Mol-Kelvin    Cal/Mol-Kelvin
 Total                  153.122             61.383            131.586
 Electronic               0.000              0.000              0.000
 Translational            0.889              2.981             42.635
 Rotational               0.889              2.981             33.620
 Vibrational            151.344             55.422             55.331
 Vibration     1          0.593              1.984              5.908
 Vibration     2          0.594              1.983              5.612
 Vibration     3          0.596              1.974              4.513
 Vibration     4          0.597              1.973              4.430
 Vibration     5          0.600              1.961              3.829
 Vibration     6          0.602              1.956              3.656
 Vibration     7          0.626              1.877              2.418
 Vibration     8          0.633              1.856              2.244
 Vibration     9          0.650              1.802              1.915
 Vibration    10          0.655              1.785              1.829
 Vibration    11          0.665              1.757              1.705
 Vibration    12          0.676              1.722              1.573
 Vibration    13          0.684              1.700              1.499
 Vibration    14          0.718              1.600              1.223
 Vibration    15          0.726              1.579              1.175
 Vibration    16          0.740              1.540              1.093
 Vibration    17          0.763              1.479              0.978
 Vibration    18          0.770              1.460              0.945
 Vibration    19          0.782              1.428              0.894
 Vibration    20          0.815              1.345              0.774
 Vibration    21          0.845              1.274              0.686
 Vibration    22          0.855              1.252              0.660
 Vibration    23          0.886              1.181              0.584
 Vibration    24          0.926              1.096              0.504

                           ! Non-Optimized Parameters !
 Normal termination of Gaussian 16 at Thu Sep 24 17:15:27 2020.

 ----------------------------------------------------------------------
 #p b3lyp/6-31G(d) scrf=(iefpcm,read,solvent=water) geom=allcheck guess
 =read
 ----------------------------------------------------------------------

 Structure from the checkpoint file:  "SM46_m1.a.8.pdb.xyz.mst.a.w.chk"
 -------------------
 SM46_m1.a.8.pdb.xyz
 -------------------
 Charge = -1 Multiplicity = 1

 SCF Done:  E(RB3LYP) =  -1210.71530416     A.U. after    7 cycles
 Normal termination of Gaussian 16 at Thu Sep 24 17:16:01 2020.

 -----------------------------
 #p B3LYP/6-31G* geom=allcheck
 -----------------------------

 Structure from the checkpoint file:  "SM46_m1.a.8.pdb.xyz.mst.a.w.chk"
 -------------------
 SM46_m1.a.8.pdb.xyz
 -------------------
 Charge = -1 Multiplicity = 1

 SCF Done:  E(RB3LYP) =  -1210.61750164     A.U. after   15 cycles

 The electronic state is 1-A.
 Alpha  occ. eigenvalues --  -88.94505 -18.96602 -18.95857 -14.29944 -14.25233
 Alpha  occ. eigenvalues --  -14.21229 -14.20710 -14.14649 -10.14606 -10.11233
 Alpha  occ. eigenvalues --  -10.11126 -10.10790 -10.10657 -10.10327 -10.10071
 Alpha  occ. eigenvalues --  -10.08770 -10.08354 -10.07604  -7.96687  -5.93179
 Alpha  occ. eigenvalues --   -5.93163  -5.93031  -0.96072  -0.93402  -0.81475
 Alpha  occ. eigenvalues --   -0.80435  -0.77953  -0.75606  -0.73076  -0.66788
 Alpha  occ. eigenvalues --   -0.65768  -0.63794  -0.58679  -0.54792  -0.54037
 Alpha  occ. eigenvalues --   -0.52646  -0.48416  -0.47133  -0.43662  -0.41914
 Alpha  occ. eigenvalues --   -0.39377  -0.37663  -0.36676  -0.35431  -0.34528
 Alpha  occ. eigenvalues --   -0.34009  -0.33497  -0.33156  -0.31953  -0.31762
 Alpha  occ. eigenvalues --   -0.28248  -0.28135  -0.27834  -0.27209  -0.27001
 Alpha  occ. eigenvalues --   -0.26543  -0.24646  -0.20826  -0.19907  -0.18136
 Alpha  occ. eigenvalues --   -0.17098  -0.16526  -0.15966  -0.13576  -0.13441
 Alpha  occ. eigenvalues --   -0.13309  -0.12250  -0.11596  -0.09333  -0.04496
 Alpha virt. eigenvalues --    0.07362   0.08037   0.14577   0.17058   0.20326
 Alpha virt. eigenvalues --    0.21231   0.21693   0.23205   0.24051   0.24873
 Alpha virt. eigenvalues --    0.25182   0.25494   0.26968   0.27271   0.27503

 Mulliken charges:
               1
     1  O   -0.597530
     2  S    1.228300
     3  N   -0.666557
     4  C    0.354228
     5  N   -0.353062
     6  N   -0.123249
     7  C   -0.019226
     8  N   -0.371194
     9  C    0.340763
    10  C   -0.169733
    11  C   -0.144448
    12  C   -0.129847
    13  C   -0.143740
    14  C   -0.151870
    15  N   -0.490734
    16  C   -0.313069
    17  C   -0.304978
    18  O   -0.625743
    19  H    0.178886
    20  H    0.149157
    21  H    0.114613
    22  H    0.103600
    23  H    0.112303
    24  H    0.162375
    25  H    0.172010
    26  H    0.117838
    27  H    0.139076
    28  H    0.181001
    29  H    0.138574
    30  H    0.112257
 Sum of Mulliken charges =  -1.00000

 Dipole moment (field-independent basis, Debye):
    X=              8.7026    Y=             -3.9004    Z=              3.9271  Tot=             10.3136
 Quadrupole moment (field-independent basis, Debye-Ang):
   XX=           -149.7835   YY=           -127.8669   ZZ=           -122.5272
   XY=             -2.5072   XZ=            -17.3652   YZ=             -4.1678

 Normal termination of Gaussian 16 at Thu Sep 24 17:16:36 2020.
 Gaussian 16:  ES64L-G16RevB.01 20-Dec-2017

 ----------------------------------------------------------------------
 #p mp2/aug-cc-pVDZ scf=(MaxCycle=2000,NoVarAcc,NoIncFock) maxdisk=120G
 B geom=allcheck
 ----------------------------------------------------------------------

 Structure from the checkpoint file:  "SM46_m1.a.8.pdb.xyz.mst.a.w.chk"
 -------------------
 SM46_m1.a.8.pdb.xyz
 -------------------
 Charge = -1 Multiplicity = 1

                         Standard orientation:
 ---------------------------------------------------------------------
 Center     Atomic      Atomic             Coordinates (Angstroms)
 Number     Number       Type             X           Y           Z
 ---------------------------------------------------------------------
      1          8           0       -3.973338    0.190921   -1.504855
      2         16           0       -2.781061   -0.193017   -0.717484
      3          7           0       -1.949233    1.136830   -0.411355
      4          6           0       -0.589502    1.058716   -0.171529
      5          7           0        0.042866    2.160191    0.362160
      6          7           0        1.329910    1.922302    0.470690
      7          6           0        0.388334    0.095922   -0.400956
      8          7           0        1.552064    0.675093    0.014299
      9          6           0        2.859124    0.121024    0.017036
     10          6           0        3.025221   -1.264474   -0.065396
     11          6           0        4.311913   -1.801284   -0.069802
     12          6           0        5.427325   -0.966838    0.018736
     13          6           0        5.249019    0.416261    0.107283
     14          6           0        3.969535    0.966613    0.100364
     15          7           0       -3.459910   -0.835539    0.735509
     16          6           0       -2.450702   -1.337000    1.674804
     17          6           0       -4.402056    0.079680    1.386221
     18          8           0       -1.971698   -1.321458   -1.245278
     19          1           0        0.333021   -0.888535   -0.824784
     20          1           0        2.160207   -1.914027   -0.114747
     21          1           0        4.437776   -2.876672   -0.134991
     22          1           0        6.426098   -1.389595    0.018294
     23          1           0        6.109112    1.073900    0.173076
     24          1           0        3.820245    2.036672    0.155950
     25          1           0       -1.763051   -1.996836    1.146991
     26          1           0       -2.965058   -1.907891    2.452394
     27          1           0       -1.882187   -0.529279    2.158315
     28          1           0       -5.135807    0.421115    0.657589
     29          1           0       -3.904845    0.951203    1.835962
     30          1           0       -4.917392   -0.471340    2.177078
 ---------------------------------------------------------------------

 SCF Done:  E(RHF) =  -1205.15145618     A.U. after   17 cycles
