 Gaussian 16, Revision B.01,

 ----------------------------------------------------------------------
 #p b3lyp/6-31G(d) opt freq NoSymm scf=(MaxCycle=2000,NoVarAcc,NoIncFoc
 k) scrf=(iefpcm,read,solvent=water)
 ----------------------------------------------------------------------

 --------------------
 SM46_m2.b.10.pdb.xyz
 --------------------
 Symbolic Z-matrix:
 Charge =  1 Multiplicity = 1

 SCF Done:  E(RB3LYP) =  -1211.63403924     A.U. after   13 cycles
 SCF Done:  E(RB3LYP) =  -1211.63391319     A.U. after   10 cycles
 SCF Done:  E(RB3LYP) =  -1211.63390772     A.U. after    9 cycles
 SCF Done:  E(RB3LYP) =  -1211.63403349     A.U. after   10 cycles
 SCF Done:  E(RB3LYP) =  -1211.63403939     A.U. after    8 cycles
 SCF Done:  E(RB3LYP) =  -1211.63388181     A.U. after   10 cycles
 SCF Done:  E(RB3LYP) =  -1211.63386389     A.U. after    9 cycles
 SCF Done:  E(RB3LYP) =  -1211.63403357     A.U. after   10 cycles
 SCF Done:  E(RB3LYP) =  -1211.63403925     A.U. after    8 cycles
 SCF Done:  E(RB3LYP) =  -1211.63384938     A.U. after   10 cycles
 SCF Done:  E(RB3LYP) =  -1211.63403121     A.U. after   10 cycles
 SCF Done:  E(RB3LYP) =  -1211.63382200     A.U. after   10 cycles
 SCF Done:  E(RB3LYP) =  -1211.63379986     A.U. after    9 cycles
 SCF Done:  E(RB3LYP) =  -1211.63382372     A.U. after    9 cycles
 SCF Done:  E(RB3LYP) =  -1211.63381554     A.U. after    8 cycles
 SCF Done:  E(RB3LYP) =  -1211.63381405     A.U. after    7 cycles
 Optimization completed on the basis of negligible forces.
    -- Stationary point found.
 Normal termination of Gaussian 16 at Thu Sep 24 17:24:38 2020.

 --------------------------------------------------------------------
 #P Geom=AllCheck Guess=TCheck SCRF=Check GenChk RB3LYP/6-31G(d) Freq
 --------------------------------------------------------------------

 Structure from the checkpoint file:  "SM46_m2.b.10.pdb.xyz.mst.b.w.chk"
 --------------------
 SM46_m2.b.10.pdb.xyz
 --------------------
 Charge =  1 Multiplicity = 1

 SCF Done:  E(RB3LYP) =  -1211.63381405     A.U. after    1 cycles

  Exact polarizability: 297.834   4.100 206.066 -12.682  26.263 129.439
 Approx polarizability: 309.056  -0.915 254.736 -18.326  33.330 155.463

                      1                      2                      3
                      A                      A                      A
 Frequencies --     28.2333                38.4500                42.2602
 Red. masses --      4.2563                 5.5592                 4.3277
 Frc consts  --      0.0020                 0.0048                 0.0046
 IR Inten    --      1.1065                 2.9657                 0.4870

                      4                      5                      6
                      A                      A                      A
 Frequencies --     77.2211                89.4931                94.0429
 Red. masses --      3.8595                 4.0267                 4.9108
 Frc consts  --      0.0136                 0.0190                 0.0256
 IR Inten    --      2.8710                 5.8172                 1.5872

                      7                      8                      9
                      A                      A                      A
 Frequencies --    114.0768               170.9605               205.6973
 Red. masses --      5.5918                 1.6249                 1.6690
 Frc consts  --      0.0429                 0.0280                 0.0416
 IR Inten    --      1.5641                10.1148                 9.2308

                     10                     11                     12
                      A                      A                      A
 Frequencies --    222.4900               242.2877               253.4628
 Red. masses --      2.4595                 1.8175                 5.2945
 Frc consts  --      0.0717                 0.0629                 0.2004
 IR Inten    --      1.6702                 2.0090                 1.3923

                     13                     14                     15
                      A                      A                      A
 Frequencies --    268.3036               305.3011               342.4367
 Red. masses --      4.3899                 4.1962                 4.8008
 Frc consts  --      0.1862                 0.2304                 0.3317
 IR Inten    --      6.9142                 5.3294                13.7352

                     16                     17                     18
                      A                      A                      A
 Frequencies --    360.0569               390.5538               417.7597
 Red. masses --      3.1429                 6.9982                 2.9800
 Frc consts  --      0.2401                 0.6289                 0.3064
 IR Inten    --      1.3726                 8.5725                 0.1251

                     19                     20                     21
                      A                      A                      A
 Frequencies --    423.4891               465.0326               468.3565
 Red. masses --      4.3509                 5.0292                 6.1475
 Frc consts  --      0.4597                 0.6408                 0.7945
 IR Inten    --      7.0586                12.3052                20.3448

                     22                     23                     24
                      A                      A                      A
 Frequencies --    495.6754               527.5253               538.0011
 Red. masses --      3.4217                 3.0507                 3.2666
 Frc consts  --      0.4953                 0.5002                 0.5571
 IR Inten    --     61.2310                98.8261                55.6940

                     25                     26                     27
                      A                      A                      A
 Frequencies --    579.2401               625.9756               654.4590
 Red. masses --      5.7396                 6.4279                 3.7786
 Frc consts  --      1.1346                 1.4840                 0.9535
 IR Inten    --    178.4364                 0.9361                50.0941

                     28                     29                     30
                      A                      A                      A
 Frequencies --    681.4421               691.7426               700.9205
 Red. masses --      3.7366                 3.9075                 2.4775
 Frc consts  --      1.0223                 1.1016                 0.7171
 IR Inten    --     52.3101                15.7606                37.3840

                     31                     32                     33
                      A                      A                      A
 Frequencies --    704.9130               726.4138               780.8631
 Red. masses --      5.1885                 1.2950                 1.6275
 Frc consts  --      1.5190                 0.4026                 0.5847
 IR Inten    --     68.8033               134.7549                71.7648

                     34                     35                     36
                      A                      A                      A
 Frequencies --    787.2823               822.7244               852.2299
 Red. masses --      2.1419                 2.5166                 3.6755
 Frc consts  --      0.7822                 1.0036                 1.5728
 IR Inten    --     77.4071                10.3174               321.6751

                     37                     38                     39
                      A                      A                      A
 Frequencies --    852.6302               944.4434               944.7870
 Red. masses --      1.2752                 1.3788                 3.1864
 Frc consts  --      0.5462                 0.7246                 1.6758
 IR Inten    --      2.9526                13.7842               192.6890

                     40                     41                     42
                      A                      A                      A
 Frequencies --    987.1433              1007.4047              1018.7623
 Red. masses --      1.3493                 8.1477                 1.2894
 Frc consts  --      0.7747                 4.8718                 0.7884
 IR Inten    --      0.4452                20.7294                 0.2889

                     43                     44                     45
                      A                      A                      A
 Frequencies --   1022.3776              1053.7500              1068.8120
 Red. masses --      6.3109                 2.1957                 1.6590
 Frc consts  --      3.8866                 1.4365                 1.1166
 IR Inten    --      0.8458                 3.3949                32.4268

                     46                     47                     48
                      A                      A                      A
 Frequencies --   1072.2974              1107.8243              1111.9371
 Red. masses --      2.4549                 3.0898                 1.9573
 Frc consts  --      1.6631                 2.2342                 1.4258
 IR Inten    --    108.3274                42.1037               133.2623

                     49                     50                     51
                      A                      A                      A
 Frequencies --   1114.6624              1133.8145              1181.2146
 Red. masses --      3.9345                 1.2322                 1.3691
 Frc consts  --      2.8802                 0.9333                 1.1255
 IR Inten    --    186.3890                 5.4168                 4.5356

                     52                     53                     54
                      A                      A                      A
 Frequencies --   1194.5328              1203.2826              1213.5652
 Red. masses --      1.1034                 1.1397                 2.0073
 Frc consts  --      0.9276                 0.9722                 1.7418
 IR Inten    --      0.6731                 3.1167                28.8228

                     55                     56                     57
                      A                      A                      A
 Frequencies --   1219.7260              1241.9965              1283.0963
 Red. masses --      3.1094                 2.7499                 2.0118
 Frc consts  --      2.7256                 2.4992                 1.9515
 IR Inten    --     48.2291                 7.0695                54.0086

                     58                     59                     60
                      A                      A                      A
 Frequencies --   1304.2603              1343.2143              1351.5797
 Red. masses --      8.8005                 2.7797                 2.4357
 Frc consts  --      8.8203                 2.9549                 2.6216
 IR Inten    --    303.1410                16.4198                50.1762

                     61                     62                     63
                      A                      A                      A
 Frequencies --   1368.9811              1397.4254              1409.4459
 Red. masses --      3.3324                 2.1075                 2.8083
 Frc consts  --      3.6797                 2.4248                 3.2869
 IR Inten    --      3.8143                26.4865                84.4395

                     64                     65                     66
                      A                      A                      A
 Frequencies --   1459.3109              1462.4101              1480.4663
 Red. masses --      1.1517                 3.2766                 1.1548
 Frc consts  --      1.4451                 4.1286                 1.4912
 IR Inten    --      1.5998                21.2906                 5.1417

                     67                     68                     69
                      A                      A                      A
 Frequencies --   1502.9951              1506.2030              1518.3790
 Red. masses --      1.9871                 1.0761                 1.0510
 Frc consts  --      2.6448                 1.4384                 1.4277
 IR Inten    --     19.8472                 6.5772                16.1689

                     70                     71                     72
                      A                      A                      A
 Frequencies --   1520.1290              1524.0424              1532.1728
 Red. masses --      2.0472                 1.2031                 1.0495
 Frc consts  --      2.7873                 1.6465                 1.4516
 IR Inten    --      7.3143                22.0987                22.6681

                     73                     74                     75
                      A                      A                      A
 Frequencies --   1541.9560              1647.6047              1654.1016
 Red. masses --      2.4254                 5.5252                 5.6682
 Frc consts  --      3.3977                 8.8370                 9.1373
 IR Inten    --     37.2752               311.4639                32.6891

                     76                     77                     78
                      A                      A                      A
 Frequencies --   1663.9173              3067.7490              3076.5708
 Red. masses --      5.9912                 1.0442                 1.0386
 Frc consts  --      9.7729                 5.7899                 5.7923
 IR Inten    --    165.8997                59.4168                56.1485

                     79                     80                     81
                      A                      A                      A
 Frequencies --   3157.1336              3160.0891              3193.5462
 Red. masses --      1.0942                 1.0991                 1.1054
 Frc consts  --      6.4258                 6.4668                 6.6421
 IR Inten    --     29.0337                11.5972                10.4392

                     82                     83                     84
                      A                      A                      A
 Frequencies --   3210.6065              3222.1284              3230.4100
 Red. masses --      1.1031                 1.0868                 1.0898
 Frc consts  --      6.6992                 6.6477                 6.7007
 IR Inten    --      5.4504                 0.1678                11.2588

                     85                     86                     87
                      A                      A                      A
 Frequencies --   3237.5140              3245.3865              3254.8695
 Red. masses --      1.0933                 1.0968                 1.0945
 Frc consts  --      6.7517                 6.8062                 6.8315
 IR Inten    --     26.9295                12.6611                 1.6523

                     88                     89                     90
                      A                      A                      A
 Frequencies --   3356.6346              3513.7954              3518.1256
 Red. masses --      1.1016                 1.0843                 1.0792
 Frc consts  --      7.3131                 7.8880                 7.8701
 IR Inten    --     27.2657               671.8239               159.3274

 - Thermochemistry -
 -------------------
 Temperature   298.150 Kelvin.  Pressure   1.00000 Atm.
 Atom     1 has atomic number  8 and mass  15.99491

 Molecular mass:   268.08682 amu.
 Principal axes and moments of inertia in atomic units:
                           1         2         3
     Eigenvalues --  1525.48258********************
           X            0.99977   0.00438  -0.02100
           Y           -0.00666   0.99393  -0.10981
           Z            0.02039   0.10992   0.99373
 This molecule is an asymmetric top.
 Rotational symmetry number  1.
 Warning -- assumption of classical behavior for rotation
           may cause significant error
 Rotational temperatures (Kelvin)      0.05678     0.00770     0.00738
 Rotational constants (GHZ):           1.18306     0.16051     0.15373
 Zero-point vibrational energy     668716.0 (Joules/Mol)
                                  159.82696 (Kcal/Mol)
 Warning -- explicit consideration of  25 degrees of freedom as
           vibrations may cause significant error
 Vibrational temperatures:     40.62    55.32    60.80   111.10   128.76
          (Kelvin)            135.31   164.13   245.97   295.95   320.11
                              348.60   364.68   386.03   439.26   492.69
                              518.04   561.92   601.06   609.31   669.08
                              673.86   713.17   758.99   774.06   833.40
                              900.64   941.62   980.44   995.26  1008.47
                             1014.21  1045.15  1123.49  1132.72  1183.72
                             1226.17  1226.74  1358.84  1359.34  1420.28
                             1449.43  1465.77  1470.97  1516.11  1537.78
                             1542.80  1593.91  1599.83  1603.75  1631.31
                             1699.50  1718.67  1731.26  1746.05  1754.91
                             1786.96  1846.09  1876.54  1932.59  1944.62
                             1969.66  2010.58  2027.88  2099.62  2104.08
                             2130.06  2162.47  2167.09  2184.61  2187.13
                             2192.76  2204.45  2218.53  2370.54  2379.88
                             2394.01  4413.81  4426.50  4542.41  4546.66
                             4594.80  4619.35  4635.92  4647.84  4658.06
                             4669.39  4683.03  4829.45  5055.57  5061.80

 Zero-point correction=                           0.254700 (Hartree/Particle)
 Thermal correction to Energy=                    0.271411
 Thermal correction to Enthalpy=                  0.272355
 Thermal correction to Gibbs Free Energy=         0.208759
 Sum of electronic and zero-point Energies=          -1211.379114
 Sum of electronic and thermal Energies=             -1211.362403
 Sum of electronic and thermal Enthalpies=           -1211.361459
 Sum of electronic and thermal Free Energies=        -1211.425055

                     E (Thermal)             CV                S
                      KCal/Mol        Cal/Mol-Kelvin    Cal/Mol-Kelvin
 Total                  170.313             63.428            133.850
 Electronic               0.000              0.000              0.000
 Translational            0.889              2.981             42.657
 Rotational               0.889              2.981             33.665
 Vibrational            168.535             57.467             57.527
 Vibration     1          0.593              1.984              5.950
 Vibration     2          0.594              1.982              5.337
 Vibration     3          0.595              1.980              5.150
 Vibration     4          0.599              1.964              3.960
 Vibration     5          0.602              1.957              3.671
 Vibration     6          0.603              1.953              3.574
 Vibration     7          0.607              1.938              3.198
 Vibration     8          0.626              1.878              2.425
 Vibration     9          0.640              1.832              2.082
 Vibration    10          0.648              1.807              1.939
 Vibration    11          0.658              1.775              1.786
 Vibration    12          0.665              1.757              1.706
 Vibration    13          0.673              1.731              1.607
 Vibration    14          0.696              1.664              1.388
 Vibration    15          0.722              1.591              1.201
 Vibration    16          0.735              1.555              1.122
 Vibration    17          0.758              1.490              0.998
 Vibration    18          0.781              1.432              0.900
 Vibration    19          0.786              1.419              0.880
 Vibration    20          0.822              1.328              0.752
 Vibration    21          0.826              1.320              0.742
 Vibration    22          0.851              1.260              0.669
 Vibration    23          0.882              1.189              0.593
 Vibration    24          0.893              1.166              0.570
 Vibration    25          0.936              1.076              0.487

 Optimization completed on the basis of negligible forces.
    -- Stationary point found.
 Normal termination of Gaussian 16 at Thu Sep 24 17:34:21 2020.

 ----------------------------------------------------------------------
 #p b3lyp/6-31G(d) scrf=(iefpcm,read,solvent=water) geom=allcheck guess
 =read
 ----------------------------------------------------------------------

 Structure from the checkpoint file:  "SM46_m2.b.10.pdb.xyz.mst.b.w.chk"
 --------------------
 SM46_m2.b.10.pdb.xyz
 --------------------
 Charge =  1 Multiplicity = 1

 SCF Done:  E(RB3LYP) =  -1211.63373018     A.U. after    7 cycles
 Normal termination of Gaussian 16 at Thu Sep 24 17:34:55 2020.

 -----------------------------
 #p B3LYP/6-31G* geom=allcheck
 -----------------------------

 Structure from the checkpoint file:  "SM46_m2.b.10.pdb.xyz.mst.b.w.chk"
 --------------------
 SM46_m2.b.10.pdb.xyz
 --------------------
 Charge =  1 Multiplicity = 1

 SCF Done:  E(RB3LYP) =  -1211.53621664     A.U. after   16 cycles
 Normal termination of Gaussian 16 at Thu Sep 24 17:35:39 2020.
 Gaussian 16:  ES64L-G16RevB.01 20-Dec-2017

 ----------------------------------------------------------------------
 #p mp2/aug-cc-pVDZ scf=(MaxCycle=2000,NoVarAcc,NoIncFock) maxdisk=120G
 B geom=allcheck
 ----------------------------------------------------------------------

 Structure from the checkpoint file:  "SM46_m2.b.10.pdb.xyz.mst.b.w.chk"
 --------------------
 SM46_m2.b.10.pdb.xyz
 --------------------
 Charge =  1 Multiplicity = 1

                         Standard orientation:
 ---------------------------------------------------------------------
 Center     Atomic      Atomic             Coordinates (Angstroms)
 Number     Number       Type             X           Y           Z
 ---------------------------------------------------------------------
      1          8           0        2.480267   -0.313383    1.846712
      2         16           0        2.945092   -0.623436    0.494492
      3          7           0        1.653492   -1.111222   -0.516678
      4          6           0        0.415265   -0.502389   -0.418202
      5          7           0        0.203003    0.819855   -0.655422
      6          7           0       -1.061750    1.168336   -0.554944
      7          6           0       -0.837732   -1.015610   -0.153164
      8          7           0       -1.686843    0.043250   -0.262083
      9          6           0       -3.109542    0.046994   -0.075589
     10          6           0       -3.833538   -1.102833   -0.387683
     11          6           0       -5.214165   -1.093319   -0.197479
     12          6           0       -5.850374    0.051247    0.286690
     13          6           0       -5.105467    1.194024    0.587636
     14          6           0       -3.723751    1.199566    0.413449
     15          7           0        3.302648    0.826084   -0.247434
     16          6           0        3.968478    1.822978    0.613046
     17          6           0        3.892790    0.693252   -1.590705
     18          8           0        3.941104   -1.678783    0.295567
     19          1           0        1.610769   -2.130512   -0.571096
     20          1           0       -1.158278   -2.007620    0.110097
     21          1           0       -3.336357   -1.979473   -0.784754
     22          1           0       -5.789763   -1.979402   -0.438069
     23          1           0       -6.924916    0.052926    0.430199
     24          1           0       -5.596792    2.081620    0.968990
     25          1           0       -3.129192    2.070382    0.657894
     26          1           0        3.433648    1.903263    1.556653
     27          1           0        3.914277    2.776695    0.087111
     28          1           0        5.019555    1.576547    0.798561
     29          1           0        3.297603   -0.004637   -2.178709
     30          1           0        4.932980    0.354711   -1.552348
     31          1           0        3.849459    1.677168   -2.058749
     32          1           0        0.898944    1.533046   -0.887965
 ---------------------------------------------------------------------

 SCF Done:  E(RHF) =  -1206.06524605     A.U. after   17 cycles
 E2 =    -0.2803597383D+01 EUMP2 =    -0.12088688434306D+04

 The electronic state is 1-A.
 Alpha  occ. eigenvalues --  -92.38290 -20.69683 -20.69402 -15.89362 -15.87559
 Alpha  occ. eigenvalues --  -15.87055 -15.78641 -15.74981 -11.53317 -11.47783
 Alpha  occ. eigenvalues --  -11.44362 -11.39840 -11.39440 -11.39281 -11.38946
 Alpha  occ. eigenvalues --  -11.37832 -11.37697 -11.37574  -9.34744  -7.03282
 Alpha  occ. eigenvalues --   -7.03247  -7.03194  -1.68118  -1.60607  -1.47468
 Alpha  occ. eigenvalues --   -1.47124  -1.42005  -1.38541  -1.30051  -1.28765
 Alpha  occ. eigenvalues --   -1.19393  -1.16381  -1.10760  -1.10002  -1.08210
 Alpha  occ. eigenvalues --   -1.06730  -0.99192  -0.97501  -0.95605  -0.92590
 Alpha  occ. eigenvalues --   -0.88769  -0.87804  -0.87293  -0.85708  -0.83629
 Alpha  occ. eigenvalues --   -0.81908  -0.81439  -0.79217  -0.76989  -0.76393
 Alpha  occ. eigenvalues --   -0.74799  -0.73846  -0.73464  -0.71570  -0.70450
 Alpha  occ. eigenvalues --   -0.69639  -0.68855  -0.67215  -0.66081  -0.65235
 Alpha  occ. eigenvalues --   -0.64272  -0.63864  -0.62801  -0.62264  -0.61692
 Alpha  occ. eigenvalues --   -0.60041  -0.54264  -0.52986  -0.47643  -0.47334
 Alpha virt. eigenvalues --   -0.09309  -0.07221  -0.06237  -0.05044  -0.04284
 Alpha virt. eigenvalues --   -0.03856  -0.03367  -0.03147  -0.02858  -0.02165
 Alpha virt. eigenvalues --   -0.02019  -0.01607  -0.00968  -0.00795  -0.00361

 Mulliken charges:
               1
     1  O   -1.112857
     2  S    3.221751
     3  N   -0.878204
     4  C    0.382603
     5  N   -0.255036
     6  N   -0.458287
     7  C    1.591291
     8  N   -0.676523
     9  C    0.976722
    10  C    0.172251
    11  C    0.728087
    12  C    0.587819
    13  C    0.590313
    14  C    0.334603
    15  N   -1.197746
    16  C    0.775754
    17  C    0.725420
    18  O   -1.107944
    19  H   -0.017867
    20  H   -0.447015
    21  H   -0.638417
    22  H   -0.412829
    23  H   -0.416709
    24  H   -0.408996
    25  H   -0.515866
    26  H   -0.149870
    27  H   -0.142426
    28  H   -0.044746
    29  H   -0.092236
    30  H   -0.042064
    31  H   -0.144986
    32  H    0.074009
 Sum of Mulliken charges =   1.00000

 Dipole moment (field-independent basis, Debye):
    X=             -4.3677    Y=              1.8338    Z=             -3.9001  Tot=              6.1360
 Quadrupole moment (field-independent basis, Debye-Ang):
   XX=            -52.3643   YY=            -92.8982   ZZ=           -114.9627
   XY=             18.7731   XZ=            -12.4141   YZ=              4.2885

 Normal termination of Gaussian 16 at Thu Sep 24 18:06:50 2020.
