 Gaussian 16, Revision B.01,

 ----------------------------------------------------------------------
 #p b3lyp/6-31G(d) opt freq NoSymm scf=(MaxCycle=2000,NoVarAcc,NoIncFoc
 k) scrf=(iefpcm,read,solvent=water) MaxDisk=20GB
 ----------------------------------------------------------------------

 -------------------
 SM46_m0.n.2.pdb.xyz
 -------------------
 Symbolic Z-matrix:
 Charge =  0 Multiplicity = 1

 SCF Done:  E(RB3LYP) =  -1211.18728761     A.U. after   13 cycles
 SCF Done:  E(RB3LYP) =  -1211.18732033     A.U. after    9 cycles
 SCF Done:  E(RB3LYP) =  -1211.18731600     A.U. after    9 cycles
 SCF Done:  E(RB3LYP) =  -1211.18727700     A.U. after   10 cycles
 SCF Done:  E(RB3LYP) =  -1211.18731212     A.U. after   10 cycles
 SCF Done:  E(RB3LYP) =  -1211.18727649     A.U. after   10 cycles
 SCF Done:  E(RB3LYP) =  -1211.18731895     A.U. after   10 cycles
 SCF Done:  E(RB3LYP) =  -1211.18727394     A.U. after   10 cycles
 SCF Done:  E(RB3LYP) =  -1211.18731864     A.U. after   11 cycles
 SCF Done:  E(RB3LYP) =  -1211.18734060     A.U. after   12 cycles
 SCF Done:  E(RB3LYP) =  -1211.18820091     A.U. after    8 cycles
 SCF Done:  E(RB3LYP) =  -1211.18820147     A.U. after    8 cycles
 SCF Done:  E(RB3LYP) =  -1211.18820686     A.U. after    8 cycles
 SCF Done:  E(RB3LYP) =  -1211.18820941     A.U. after    9 cycles
 SCF Done:  E(RB3LYP) =  -1211.18820893     A.U. after    8 cycles
 SCF Done:  E(RB3LYP) =  -1211.18820865     A.U. after    7 cycles
 Optimization completed.
    -- Stationary point found.
 Normal termination of Gaussian 16 at Mon Sep 14 02:42:12 2020.

 --------------------------------------------------------------------
 #P Geom=AllCheck Guess=TCheck SCRF=Check GenChk RB3LYP/6-31G(d) Freq
 --------------------------------------------------------------------

 Structure from the checkpoint file:  "SM46_m0.n.2.pdb.xyz.mst.n.w.chk"
 -------------------
 SM46_m0.n.2.pdb.xyz
 -------------------
 Charge =  0 Multiplicity = 1

 SCF Done:  E(RB3LYP) =  -1211.18820865     A.U. after    1 cycles

  Exact polarizability: 302.393  -3.232 217.897  17.341   2.009 117.347
 Approx polarizability: 316.766  -4.604 268.499  21.860   2.542 139.780

                      1                      2                      3
                      A                      A                      A
 Frequencies --     25.7574                29.9501                44.1512
 Red. masses --      5.9185                 4.7282                 4.6392
 Frc consts  --      0.0023                 0.0025                 0.0053
 IR Inten    --      6.4589                 6.8626                 1.2657

                      4                      5                      6
                      A                      A                      A
 Frequencies --     75.8598                82.2333               109.9064
 Red. masses --      4.6416                 3.7159                 5.0449
 Frc consts  --      0.0157                 0.0148                 0.0359
 IR Inten    --      9.6878                 2.6199                 4.6197

                      7                      8                      9
                      A                      A                      A
 Frequencies --    114.4287               162.2485               209.3062
 Red. masses --      5.6617                 2.7272                 1.1728
 Frc consts  --      0.0437                 0.0423                 0.0303
 IR Inten    --      1.5730                 8.8771                 1.6055

                     10                     11                     12
                      A                      A                      A
 Frequencies --    225.9589               249.2306               266.0379
 Red. masses --      1.1362                 4.5708                 5.3913
 Frc consts  --      0.0342                 0.1673                 0.2248
 IR Inten    --      0.6630                 2.0401                12.1641

                     13                     14                     15
                      A                      A                      A
 Frequencies --    278.0729               312.5061               338.4578
 Red. masses --      4.0018                 6.8098                 4.3397
 Frc consts  --      0.1823                 0.3918                 0.2929
 IR Inten    --      0.6665                 3.7942                19.9887

                     16                     17                     18
                      A                      A                      A
 Frequencies --    359.7151               381.0497               415.5314
 Red. masses --      2.8460                 6.2463                 4.5872
 Frc consts  --      0.2170                 0.5344                 0.4667
 IR Inten    --      5.7326                14.1197                13.8528

                     19                     20                     21
                      A                      A                      A
 Frequencies --    420.4099               438.1367               476.3239
 Red. masses --      3.0100                 2.3448                 4.9273
 Frc consts  --      0.3134                 0.2652                 0.6587
 IR Inten    --      0.7441                77.7885                27.0444

                     22                     23                     24
                      A                      A                      A
 Frequencies --    477.9868               501.2998               536.9588
 Red. masses --      5.5041                 5.7878                 4.2060
 Frc consts  --      0.7409                 0.8570                 0.7145
 IR Inten    --      9.1550                70.6747                56.5595

                     25                     26                     27
                      A                      A                      A
 Frequencies --    561.8895               627.9073               658.6304
 Red. masses --      8.4918                 6.4004                 4.3917
 Frc consts  --      1.5796                 1.4868                 1.1224
 IR Inten    --    150.5872                 0.3968                35.3929

                     28                     29                     30
                      A                      A                      A
 Frequencies --    677.1434               697.2563               706.3798
 Red. masses --      4.9698                 6.1932                 2.3512
 Frc consts  --      1.3426                 1.7740                 0.6912
 IR Inten    --    111.6586                26.8703                34.9425

                     31                     32                     33
                      A                      A                      A
 Frequencies --    720.7137               779.5988               791.8709
 Red. masses --      7.5975                 1.6130                 1.6812
 Frc consts  --      2.3251                 0.5776                 0.6211
 IR Inten    --     70.3827                80.8170                49.6403

                     34                     35                     36
                      A                      A                      A
 Frequencies --    828.9028               844.0236               856.3812
 Red. masses --      3.4630                 3.9005                 1.2526
 Frc consts  --      1.4019                 1.6371                 0.5412
 IR Inten    --      1.5553               322.8233                 0.2511

                     37                     38                     39
                      A                      A                      A
 Frequencies --    938.3410               949.5781               983.8561
 Red. masses --      1.3896                 3.1362                 1.3441
 Frc consts  --      0.7209                 1.6662                 0.7666
 IR Inten    --      6.5524               172.8454                 0.2122

                     40                     41                     42
                      A                      A                      A
 Frequencies --   1006.4223              1011.4950              1019.7982
 Red. masses --      7.7033                 1.2700                 6.0855
 Frc consts  --      4.5971                 0.7655                 3.7288
 IR Inten    --     25.8004                 0.3419                 0.7002

                     43                     44                     45
                      A                      A                      A
 Frequencies --   1049.2162              1064.9512              1067.5930
 Red. masses --      3.0441                 2.2606                 1.7576
 Frc consts  --      1.9744                 1.5105                 1.1803
 IR Inten    --      0.9609                52.1085                20.2997

                     46                     47                     48
                      A                      A                      A
 Frequencies --   1068.9309              1108.0016              1110.6985
 Red. masses --      3.2129                 1.5977                11.0068
 Frc consts  --      2.1629                 1.1556                 8.0003
 IR Inten    --     92.1899                30.3113               280.3217

                     49                     50                     51
                      A                      A                      A
 Frequencies --   1131.4938              1176.9137              1190.2654
 Red. masses --      1.2186                 1.3768                 1.1057
 Frc consts  --      0.9192                 1.1236                 0.9229
 IR Inten    --      3.7398                 0.8192                 0.0560

                     52                     53                     54
                      A                      A                      A
 Frequencies --   1198.5466              1224.0441              1231.0239
 Red. masses --      1.1605                 3.6401                 3.5159
 Frc consts  --      0.9822                 3.2133                 3.1392
 IR Inten    --      0.3149                26.1087                13.3963

                     55                     56                     57
                      A                      A                      A
 Frequencies --   1235.9812              1281.9598              1292.6688
 Red. masses --      2.1491                 1.9440                 5.3693
 Frc consts  --      1.9344                 1.8824                 5.2862
 IR Inten    --      2.2783                25.6046               149.7195

                     58                     59                     60
                      A                      A                      A
 Frequencies --   1309.8932              1344.2684              1365.0736
 Red. masses --     10.5800                 2.6075                 2.5946
 Frc consts  --     10.6957                 2.7762                 2.8487
 IR Inten    --    258.4694               100.1255                 1.9148

                     61                     62                     63
                      A                      A                      A
 Frequencies --   1381.0287              1422.2024              1453.7882
 Red. masses --      2.7534                 2.4103                 1.1445
 Frc consts  --      3.0940                 2.8724                 1.4252
 IR Inten    --    130.2344                53.4322                 1.3633

                     64                     65                     66
                      A                      A                      A
 Frequencies --   1470.3932              1482.1776              1504.3156
 Red. masses --      1.1799                 2.5572                 1.0455
 Frc consts  --      1.5031                 3.3100                 1.3939
 IR Inten    --      6.8346                16.2914                 9.0433

                     67                     68                     69
                      A                      A                      A
 Frequencies --   1512.8736              1514.6683              1518.1775
 Red. masses --      1.0480                 2.4900                 1.0754
 Frc consts  --      1.4132                 3.3658                 1.4604
 IR Inten    --     16.4720                16.9705                22.1791

                     70                     71                     72
                      A                      A                      A
 Frequencies --   1526.9446              1549.2054              1597.9495
 Red. masses --      1.0494                 2.7627                 6.5466
 Frc consts  --      1.4415                 3.9066                 9.8490
 IR Inten    --     31.1780               135.1613               124.8362

                     73                     74                     75
                      A                      A                      A
 Frequencies --   1654.8371              1657.2785              3059.6875
 Red. masses --      6.4125                 5.7111                 1.0431
 Frc consts  --     10.3463                 9.2419                 5.7534
 IR Inten    --      9.1647                27.4664                50.4158

                     76                     77                     78
                      A                      A                      A
 Frequencies --   3067.3376              3146.0651              3147.7376
 Red. masses --      1.0409                 1.0949                 1.0983
 Frc consts  --      5.7701                 6.3849                 6.4118
 IR Inten    --     50.8739                55.2096                 1.0600

                     79                     80                     81
                      A                      A                      A
 Frequencies --   3195.2735              3201.4485              3213.8262
 Red. masses --      1.1032                 1.1021                 1.0863
 Frc consts  --      6.6364                 6.6555                 6.6107
 IR Inten    --      8.7732                 7.4731                 0.2820

                     82                     83                     84
                      A                      A                      A
 Frequencies --   3222.1525              3231.6783              3240.4966
 Red. masses --      1.0899                 1.0937                 1.0958
 Frc consts  --      6.6670                 6.7296                 6.7797
 IR Inten    --     17.6743                41.2255                13.1104

                     85                     86                     87
                      A                      A                      A
 Frequencies --   3255.6524              3336.8290              3529.5720
 Red. masses --      1.0932                 1.1004                 1.0765
 Frc consts  --      6.8271                 7.2187                 7.9013
 IR Inten    --      2.5170                 8.1038               171.8929

 - Thermochemistry -
 -------------------
 Temperature   298.150 Kelvin.  Pressure   1.00000 Atm.
 Atom     1 has atomic number  8 and mass  15.99491

 Molecular mass:   267.07900 amu.
 Principal axes and moments of inertia in atomic units:
                           1         2         3
     Eigenvalues --  1460.59242********************
           X            0.99749   0.06913   0.01501
           Y           -0.06337   0.96748  -0.24489
           Z           -0.03145   0.24332   0.96944
 This molecule is an asymmetric top.
 Rotational symmetry number  1.
 Warning -- assumption of classical behavior for rotation
           may cause significant error
 Rotational temperatures (Kelvin)      0.05930     0.00767     0.00729
 Rotational constants (GHZ):           1.23562     0.15988     0.15199
 Zero-point vibrational energy     632446.7 (Joules/Mol)
                                  151.15838 (Kcal/Mol)
 Warning -- explicit consideration of  25 degrees of freedom as
           vibrations may cause significant error
 Vibrational temperatures:     37.06    43.09    63.52   109.15   118.32
          (Kelvin)            158.13   164.64   233.44   301.14   325.10
                              358.59   382.77   400.08   449.63   486.97
                              517.55   548.25   597.86   604.88   630.38
                              685.32   687.72   721.26   772.56   808.43
                              903.42   947.62   974.26  1003.20  1016.32
                             1036.95  1121.67  1139.33  1192.61  1214.36
                             1232.14  1350.06  1366.23  1415.55  1448.02
                             1455.32  1467.26  1509.59  1532.23  1536.03
                             1537.95  1594.17  1598.05  1627.97  1693.32
                             1712.53  1724.44  1761.13  1771.17  1778.30
                             1844.45  1859.86  1884.64  1934.10  1964.04
                             1986.99  2046.23  2091.68  2115.57  2132.52
                             2164.37  2176.69  2179.27  2184.32  2196.93
                             2228.96  2299.09  2380.94  2384.45  4402.21
                             4413.21  4526.49  4528.89  4597.29  4606.17
                             4623.98  4635.96  4649.66  4662.35  4684.16
                             4800.95  5078.27

 Zero-point correction=                           0.240886 (Hartree/Particle)
 Thermal correction to Energy=                    0.257528
 Thermal correction to Enthalpy=                  0.258472
 Thermal correction to Gibbs Free Energy=         0.194767
 Sum of electronic and zero-point Energies=          -1210.947322
 Sum of electronic and thermal Energies=             -1210.930681
 Sum of electronic and thermal Enthalpies=           -1210.929736
 Sum of electronic and thermal Free Energies=        -1210.993442

                     E (Thermal)             CV                S
                      KCal/Mol        Cal/Mol-Kelvin    Cal/Mol-Kelvin
 Total                  161.601             62.773            134.079
 Electronic               0.000              0.000              0.000
 Translational            0.889              2.981             42.646
 Rotational               0.889              2.981             33.637
 Vibrational            159.824             56.812             57.796
 Vibration     1          0.593              1.985              6.132
 Vibration     2          0.594              1.984              5.833
 Vibration     3          0.595              1.980              5.064
 Vibration     4          0.599              1.965              3.995
 Vibration     5          0.600              1.961              3.837
 Vibration     6          0.606              1.941              3.271
 Vibration     7          0.607              1.937              3.192
 Vibration     8          0.622              1.889              2.523
 Vibration     9          0.642              1.827              2.050
 Vibration    10          0.650              1.801              1.911
 Vibration    11          0.662              1.764              1.736
 Vibration    12          0.672              1.735              1.622
 Vibration    13          0.679              1.714              1.545
 Vibration    14          0.701              1.650              1.349
 Vibration    15          0.719              1.599              1.219
 Vibration    16          0.734              1.555              1.123
 Vibration    17          0.751              1.511              1.035
 Vibration    18          0.779              1.437              0.907
 Vibration    19          0.783              1.426              0.891
 Vibration    20          0.798              1.387              0.832
 Vibration    21          0.833              1.303              0.720
 Vibration    22          0.834              1.299              0.716
 Vibration    23          0.857              1.247              0.655
 Vibration    24          0.892              1.168              0.572
 Vibration    25          0.918              1.114              0.520

 Optimization completed.
    -- Stationary point found.
 Normal termination of Gaussian 16 at Mon Sep 14 02:50:54 2020.

 ----------------------------------------------------------------------
 #p b3lyp/6-31G(d) scrf=(iefpcm,read,solvent=water) geom=allcheck guess
 =read
 ----------------------------------------------------------------------

 Structure from the checkpoint file:  "SM46_m0.n.2.pdb.xyz.mst.n.w.chk"
 -------------------
 SM46_m0.n.2.pdb.xyz
 -------------------
 Charge =  0 Multiplicity = 1

 SCF Done:  E(RB3LYP) =  -1211.18821684     A.U. after    7 cycles
 Normal termination of Gaussian 16 at Mon Sep 14 02:51:34 2020.

 -----------------------------
 #p B3LYP/6-31G* geom=allcheck
 -----------------------------

 Structure from the checkpoint file:  "SM46_m0.n.2.pdb.xyz.mst.n.w.chk"
 -------------------
 SM46_m0.n.2.pdb.xyz
 -------------------
 Charge =  0 Multiplicity = 1

 SCF Done:  E(RB3LYP) =  -1211.16453958     A.U. after   15 cycles
 Normal termination of Gaussian 16 at Mon Sep 14 02:52:12 2020.
 Gaussian 16:  ES64L-G16RevB.01 20-Dec-2017

 ----------------------------------------------------------------------
 #p mp2/aug-cc-pVDZ scf=(MaxCycle=2000,NoVarAcc,NoIncFock) maxdisk=180G
 B geom=allcheck
 ----------------------------------------------------------------------

 Structure from the checkpoint file:  "SM46_m0.n.2.pdb.xyz.mst.n.w.chk"
 -------------------
 SM46_m0.n.2.pdb.xyz
 -------------------
 Charge =  0 Multiplicity = 1

                         Standard orientation:
 ---------------------------------------------------------------------
 Center     Atomic      Atomic             Coordinates (Angstroms)
 Number     Number       Type             X           Y           Z
 ---------------------------------------------------------------------
      1          8           0        2.215836   -0.133364    1.754149
      2         16           0        2.872087   -0.610956    0.536155
      3          7           0        1.702045   -0.790671   -0.698456
      4          6           0        0.419355   -0.244346   -0.534493
      5          7           0        0.189277    1.091500   -0.652688
      6          7           0       -1.087932    1.317440   -0.492102
      7          6           0       -0.780591   -0.881258   -0.294835
      8          7           0       -1.692496    0.123379   -0.289184
      9          6           0       -3.103768    0.044005   -0.105989
     10          6           0       -3.772371   -1.145889   -0.400328
     11          6           0       -5.151267   -1.215536   -0.208351
     12          6           0       -5.856166   -0.105034    0.259620
     13          6           0       -5.175087    1.081843    0.541934
     14          6           0       -3.794528    1.162381    0.367381
     15          7           0        3.936425    0.578654    0.063511
     16          6           0        4.652136    0.308631   -1.193131
     17          6           0        3.480906    1.970368    0.215167
     18          8           0        3.612614   -1.874951    0.521054
     19          1           0        1.707502   -1.757272   -1.024587
     20          1           0       -1.033887   -1.913874   -0.127902
     21          1           0       -3.226467   -1.999642   -0.783544
     22          1           0       -5.673252   -2.138599   -0.434887
     23          1           0       -6.929410   -0.163825    0.403234
     24          1           0       -5.715945    1.947285    0.908968
     25          1           0       -3.249918    2.069691    0.593288
     26          1           0        5.016933   -0.717260   -1.189101
     27          1           0        5.505422    0.987536   -1.235661
     28          1           0        4.016457    0.473836   -2.070968
     29          1           0        3.017432    2.091497    1.192212
     30          1           0        2.774004    2.264413   -0.568248
     31          1           0        4.367205    2.604928    0.157681
 ---------------------------------------------------------------------

 SCF Done:  E(RHF) =  -1205.69944025     A.U. after   17 cycles
 E2 =    -0.2808766846D+01 EUMP2 =    -0.12085082070930D+04

 The electronic state is 1-A.
 Alpha  occ. eigenvalues --  -92.24417 -20.56172 -20.56169 -15.69064 -15.66443
 Alpha  occ. eigenvalues --  -15.62816 -15.62191 -15.61243 -11.32151 -11.31718
 Alpha  occ. eigenvalues --  -11.30623 -11.27497 -11.27009 -11.26724 -11.26712
 Alpha  occ. eigenvalues --  -11.26541 -11.26320 -11.26102  -9.20880  -6.89446
 Alpha  occ. eigenvalues --   -6.89377  -6.89334  -1.47209  -1.45982  -1.34485
 Alpha  occ. eigenvalues --   -1.27367  -1.25101  -1.23580  -1.16764  -1.08949
 Alpha  occ. eigenvalues --   -1.04500  -1.03981  -0.97668  -0.95152  -0.90801
 Alpha  occ. eigenvalues --   -0.87982  -0.84349  -0.82927  -0.79851  -0.76649
 Alpha  occ. eigenvalues --   -0.72543  -0.71979  -0.70344  -0.68854  -0.67203
 Alpha  occ. eigenvalues --   -0.66860  -0.65568  -0.63861  -0.63524  -0.62520
 Alpha  occ. eigenvalues --   -0.61361  -0.60674  -0.57863  -0.56564  -0.54355
 Alpha  occ. eigenvalues --   -0.53735  -0.53606  -0.53514  -0.52264  -0.52074
 Alpha  occ. eigenvalues --   -0.50317  -0.49342  -0.47963  -0.46983  -0.45480
 Alpha  occ. eigenvalues --   -0.44007  -0.40713  -0.36699  -0.36087  -0.33229
 Alpha virt. eigenvalues --    0.02562   0.03235   0.03794   0.04227   0.04760
 Alpha virt. eigenvalues --    0.05390   0.05686   0.05938   0.06488   0.07088
 Alpha virt. eigenvalues --    0.07620   0.08130   0.08302   0.08951   0.09310

 Mulliken charges:
               1
     1  O   -1.109524
     2  S    2.926661
     3  N   -0.948445
     4  C    0.553305
     5  N   -0.593460
     6  N   -0.464386
     7  C    1.331812
     8  N   -0.706013
     9  C    0.835923
    10  C    0.076251
    11  C    0.767725
    12  C    0.604989
    13  C    0.586004
    14  C    0.423008
    15  N   -1.127273
    16  C    0.703212
    17  C    0.819752
    18  O   -1.090461
    19  H   -0.002556
    20  H   -0.490313
    21  H   -0.660377
    22  H   -0.436904
    23  H   -0.444125
    24  H   -0.429823
    25  H   -0.525633
    26  H   -0.124611
    27  H   -0.153909
    28  H   -0.010813
    29  H   -0.135777
    30  H    0.000074
    31  H   -0.174313
 Sum of Mulliken charges =  -0.00000

 Dipole moment (field-independent basis, Debye):
    X=             -3.6908    Y=             -0.6867    Z=             -3.1149  Tot=              4.8781
 Quadrupole moment (field-independent basis, Debye-Ang):
   XX=            -94.6574   YY=           -109.2624   ZZ=           -121.8216
   XY=             14.3395   XZ=            -13.6120   YZ=              8.3403

 Normal termination of Gaussian 16 at Mon Sep 14 03:26:54 2020.
