 Gaussian 16, Revision B.01,

 ----------------------------------------------------------------------
 #p b3lyp/6-31G(d) opt freq NoSymm scf=(MaxCycle=2000,NoVarAcc,NoIncFoc
 k) scrf=(iefpcm,read,solvent=water)
 ----------------------------------------------------------------------

 -------------------
 SM46_m0.n.1.pdb.xyz
 -------------------
 Symbolic Z-matrix:
 Charge =  0 Multiplicity = 1

 SCF Done:  E(RB3LYP) =  -1211.18872051     A.U. after   13 cycles
 SCF Done:  E(RB3LYP) =  -1211.18875325     A.U. after    9 cycles
 SCF Done:  E(RB3LYP) =  -1211.18876853     A.U. after    9 cycles
 SCF Done:  E(RB3LYP) =  -1211.18877579     A.U. after    8 cycles
 SCF Done:  E(RB3LYP) =  -1211.18878950     A.U. after    9 cycles
 SCF Done:  E(RB3LYP) =  -1211.18879644     A.U. after    8 cycles
 SCF Done:  E(RB3LYP) =  -1211.18879882     A.U. after    7 cycles
 SCF Done:  E(RB3LYP) =  -1211.18879918     A.U. after    6 cycles
 SCF Done:  E(RB3LYP) =  -1211.18880001     A.U. after    6 cycles
 Optimization completed.
    -- Stationary point found.
 Normal termination of Gaussian 16 at Wed Sep 23 11:30:04 2020.

 --------------------------------------------------------------------
 #P Geom=AllCheck Guess=TCheck SCRF=Check GenChk RB3LYP/6-31G(d) Freq
 --------------------------------------------------------------------

 Structure from the checkpoint file:  "SM46_m0.n.1.pdb.xyz.mst.n.w.chk"
 -------------------
 SM46_m0.n.1.pdb.xyz
 -------------------
 Charge =  0 Multiplicity = 1

 SCF Done:  E(RB3LYP) =  -1211.18880001     A.U. after    1 cycles

  Exact polarizability: 283.826  16.950 229.940  -6.088  -3.331 118.751
 Approx polarizability: 306.936  19.352 273.223 -10.491  -2.120 143.633

                      1                      2                      3
                      A                      A                      A
 Frequencies --     20.5286                36.1533                40.7984
 Red. masses --      4.1786                 5.5077                 4.6126
 Frc consts  --      0.0010                 0.0042                 0.0045
 IR Inten    --      0.9946                 4.5812                 0.7780

                      4                      5                      6
                      A                      A                      A
 Frequencies --     60.7844                83.7425                98.6569
 Red. masses --      5.0865                 3.2162                 5.3835
 Frc consts  --      0.0111                 0.0133                 0.0309
 IR Inten    --      5.8452                 6.0454                 1.6288

                      7                      8                      9
                      A                      A                      A
 Frequencies --    119.6385               176.8669               211.7102
 Red. masses --      5.8159                 1.7134                 1.5112
 Frc consts  --      0.0490                 0.0316                 0.0399
 IR Inten    --      0.7556                 8.7781                 8.1954

                     10                     11                     12
                      A                      A                      A
 Frequencies --    224.6770               237.2318               254.4151
 Red. masses --      3.6773                 1.4194                 5.2231
 Frc consts  --      0.1094                 0.0471                 0.1992
 IR Inten    --      7.1931                 4.2084                 1.1973

                     13                     14                     15
                      A                      A                      A
 Frequencies --    271.0920               319.3302               340.4069
 Red. masses --      5.4510                 4.4645                 5.6121
 Frc consts  --      0.2360                 0.2682                 0.3832
 IR Inten    --      0.9173                 9.0424                13.0524

                     16                     17                     18
                      A                      A                      A
 Frequencies --    358.3332               389.8798               418.2521
 Red. masses --      2.9139                 8.0477                 3.1889
 Frc consts  --      0.2204                 0.7207                 0.3287
 IR Inten    --      2.1813                 7.7749                 4.8839

                     19                     20                     21
                      A                      A                      A
 Frequencies --    420.1681               458.1075               475.7930
 Red. masses --      3.7305                 4.8592                 5.6783
 Frc consts  --      0.3880                 0.6008                 0.7574
 IR Inten    --     16.1892                17.3923                21.8061

                     22                     23                     24
                      A                      A                      A
 Frequencies --    493.5534               528.5070               543.7918
 Red. masses --      3.4302                 3.2627                 5.2955
 Frc consts  --      0.4923                 0.5369                 0.9226
 IR Inten    --     40.9450                80.0932                32.0427

                     25                     26                     27
                      A                      A                      A
 Frequencies --    594.5956               627.9635               656.0720
 Red. masses --      5.0865                 6.3198                 4.2814
 Frc consts  --      1.0595                 1.4683                 1.0858
 IR Inten    --    206.9505                 0.7697                88.4705

                     28                     29                     30
                      A                      A                      A
 Frequencies --    678.5652               696.4710               705.3702
 Red. masses --      3.8698                 5.4197                 2.4759
 Frc consts  --      1.0498                 1.5489                 0.7258
 IR Inten    --     44.3111                19.7938                21.9168

                     31                     32                     33
                      A                      A                      A
 Frequencies --    713.9202               779.3815               800.0337
 Red. masses --      7.1355                 1.6255                 1.5658
 Frc consts  --      2.1427                 0.5818                 0.5905
 IR Inten    --     26.3409                75.2753                43.1187

                     34                     35                     36
                      A                      A                      A
 Frequencies --    818.5866               854.3486               888.3801
 Red. masses --      4.0891                 1.2506                 3.4061
 Frc consts  --      1.6144                 0.5378                 1.5838
 IR Inten    --      3.1878                 0.3402               219.7029

                     37                     38                     39
                      A                      A                      A
 Frequencies --    936.7913               940.9710               983.0179
 Red. masses --      1.3896                 3.1738                 1.3431
 Frc consts  --      0.7185                 1.6557                 0.7647
 IR Inten    --      7.0696               204.2057                 0.3103

                     40                     41                     42
                      A                      A                      A
 Frequencies --   1007.1978              1011.5359              1020.0715
 Red. masses --      7.4048                 1.2686                 6.0486
 Frc consts  --      4.4258                 0.7648                 3.7083
 IR Inten    --     30.1939                 0.2778                 0.7204

                     43                     44                     45
                      A                      A                      A
 Frequencies --   1049.3569              1058.6696              1065.0563
 Red. masses --      2.8787                 2.3908                 1.6185
 Frc consts  --      1.8676                 1.5787                 1.0817
 IR Inten    --     14.3899               146.6585                28.2629

                     46                     47                     48
                      A                      A                      A
 Frequencies --   1067.1331              1103.2475              1109.0612
 Red. masses --      3.3883                11.6632                 1.5606
 Frc consts  --      2.2734                 8.3640                 1.1310
 IR Inten    --      1.0852               332.8714                12.8571

                     49                     50                     51
                      A                      A                      A
 Frequencies --   1130.0655              1174.9456              1190.0339
 Red. masses --      1.2317                 1.3742                 1.1146
 Frc consts  --      0.9267                 1.1177                 0.9300
 IR Inten    --      4.3261                 5.2456                 0.2540

                     52                     53                     54
                      A                      A                      A
 Frequencies --   1199.3011              1215.3495              1227.7858
 Red. masses --      1.1906                 3.5422                 3.7651
 Frc consts  --      1.0090                 3.0826                 3.3441
 IR Inten    --      0.3523                29.7898                 8.5052

                     55                     56                     57
                      A                      A                      A
 Frequencies --   1236.7620              1275.6615              1284.4495
 Red. masses --      2.2126                 2.6267                 4.3199
 Frc consts  --      1.9940                 2.5184                 4.1991
 IR Inten    --     11.1680               165.1878               272.9930

                     58                     59                     60
                      A                      A                      A
 Frequencies --   1291.6446              1329.3256              1365.4469
 Red. masses --     10.0605                 2.7666                 2.6951
 Frc consts  --      9.8891                 2.8804                 2.9605
 IR Inten    --     71.7920                30.8486                 1.7399

                     61                     62                     63
                      A                      A                      A
 Frequencies --   1367.5370              1446.0104              1450.4865
 Red. masses --      2.2729                 1.9691                 1.3430
 Frc consts  --      2.5045                 2.4258                 1.6647
 IR Inten    --      6.3928               161.7447                53.7175

                     64                     65                     66
                      A                      A                      A
 Frequencies --   1469.5051              1487.6368              1502.4156
 Red. masses --      1.1615                 2.2188                 1.0450
 Frc consts  --      1.4777                 2.8931                 1.3898
 IR Inten    --      9.2687                31.1562                 9.7859

                     67                     68                     69
                      A                      A                      A
 Frequencies --   1512.6788              1515.1353              1516.1277
 Red. masses --      1.0493                 2.0199                 1.1955
 Frc consts  --      1.4147                 2.7320                 1.6191
 IR Inten    --     11.3090                46.5044                15.8069

                     70                     71                     72
                      A                      A                      A
 Frequencies --   1529.2132              1549.7966              1607.6182
 Red. masses --      1.0480                 2.7553                 6.4380
 Frc consts  --      1.4439                 3.8991                 9.8031
 IR Inten    --     17.5415                95.4243                93.1840

                     73                     74                     75
                      A                      A                      A
 Frequencies --   1655.5811              1657.7612              3058.6048
 Red. masses --      6.4212                 5.6992                 1.0448
 Frc consts  --     10.3698                 9.2280                 5.7590
 IR Inten    --     13.8421                21.3105                55.3471

                     76                     77                     78
                      A                      A                      A
 Frequencies --   3063.1259              3145.1882              3147.1507
 Red. masses --      1.0414                 1.0950                 1.0954
 Frc consts  --      5.7571                 6.3821                 6.3923
 IR Inten    --     79.1044                46.7244                 4.5813

                     79                     80                     81
                      A                      A                      A
 Frequencies --   3186.4616              3206.5795              3213.2114
 Red. masses --      1.1043                 1.1019                 1.0864
 Frc consts  --      6.6063                 6.6754                 6.6086
 IR Inten    --     11.2490                 6.2723                 0.0498

                     82                     83                     84
                      A                      A                      A
 Frequencies --   3222.8063              3230.8637              3240.0843
 Red. masses --      1.0897                 1.0938                 1.0958
 Frc consts  --      6.6686                 6.7272                 6.7781
 IR Inten    --     17.3998                41.5512                11.5523

                     85                     86                     87
                      A                      A                      A
 Frequencies --   3255.1489              3347.1524              3520.7058
 Red. masses --      1.0933                 1.1004                 1.0757
 Frc consts  --      6.8255                 7.2635                 7.8563
 IR Inten    --      2.2205                 8.8904               181.1612

 - Thermochemistry -
 -------------------
 Temperature   298.150 Kelvin.  Pressure   1.00000 Atm.
 Atom     1 has atomic number  8 and mass  15.99491

 Molecular mass:   267.07900 amu.
 Principal axes and moments of inertia in atomic units:
                           1         2         3
     Eigenvalues --  2010.179619628.25967**********
           X            0.99989  -0.01395  -0.00479
           Y            0.01392   0.99989  -0.00580
           Z            0.00487   0.00573   0.99997
 This molecule is an asymmetric top.
 Rotational symmetry number  1.
 Warning -- assumption of classical behavior for rotation
           may cause significant error
 Rotational temperatures (Kelvin)      0.04309     0.00900     0.00803
 Rotational constants (GHZ):           0.89780     0.18744     0.16742
 Zero-point vibrational energy     632666.5 (Joules/Mol)
                                  151.21092 (Kcal/Mol)
 Warning -- explicit consideration of  25 degrees of freedom as
           vibrations may cause significant error
 Vibrational temperatures:     29.54    52.02    58.70    87.46   120.49
          (Kelvin)            141.95   172.13   254.47   304.60   323.26
                              341.32   366.05   390.04   459.44   489.77
                              515.56   560.95   601.77   604.53   659.11
                              684.56   710.11   760.40   782.40   855.49
                              903.50   943.94   976.30  1002.07  1014.87
                             1027.17  1121.36  1151.07  1177.76  1229.22
                             1278.18  1347.83  1353.85  1414.34  1449.13
                             1455.37  1467.66  1509.79  1523.19  1532.38
                             1535.37  1587.33  1595.69  1625.91  1690.48
                             1712.19  1725.53  1748.62  1766.51  1779.42
                             1835.39  1848.04  1858.39  1912.60  1964.57
                             1967.58  2080.49  2086.93  2114.29  2140.38
                             2161.64  2176.41  2179.94  2181.37  2200.20
                             2229.81  2313.00  2382.01  2385.15  4400.65
                             4407.15  4525.22  4528.05  4584.61  4613.55
                             4623.09  4636.90  4648.49  4661.76  4683.43
                             4815.81  5065.51

 Zero-point correction=                           0.240970 (Hartree/Particle)
 Thermal correction to Energy=                    0.257581
 Thermal correction to Enthalpy=                  0.258526
 Thermal correction to Gibbs Free Energy=         0.194565
 Sum of electronic and zero-point Energies=          -1210.947830
 Sum of electronic and thermal Energies=             -1210.931219
 Sum of electronic and thermal Enthalpies=           -1210.930274
 Sum of electronic and thermal Free Energies=        -1210.994235

                     E (Thermal)             CV                S
                      KCal/Mol        Cal/Mol-Kelvin    Cal/Mol-Kelvin
 Total                  161.635             62.571            134.617
 Electronic               0.000              0.000              0.000
 Translational            0.889              2.981             42.646
 Rotational               0.889              2.981             33.700
 Vibrational            159.857             56.609             58.270
 Vibration     1          0.593              1.986              6.582
 Vibration     2          0.594              1.982              5.459
 Vibration     3          0.594              1.981              5.220
 Vibration     4          0.597              1.973              4.432
 Vibration     5          0.601              1.960              3.801
 Vibration     6          0.604              1.950              3.481
 Vibration     7          0.609              1.933              3.106
 Vibration     8          0.628              1.871              2.361
 Vibration     9          0.643              1.823              2.029
 Vibration    10          0.649              1.803              1.921
 Vibration    11          0.656              1.784              1.824
 Vibration    12          0.665              1.755              1.700
 Vibration    13          0.675              1.726              1.589
 Vibration    14          0.705              1.637              1.314
 Vibration    15          0.720              1.595              1.210
 Vibration    16          0.733              1.558              1.129
 Vibration    17          0.758              1.492              1.001
 Vibration    18          0.781              1.431              0.898
 Vibration    19          0.783              1.426              0.891
 Vibration    20          0.816              1.343              0.772
 Vibration    21          0.832              1.304              0.721
 Vibration    22          0.849              1.264              0.674
 Vibration    23          0.883              1.187              0.591
 Vibration    24          0.899              1.153              0.557
 Vibration    25          0.952              1.043              0.459

                           ! Non-Optimized Parameters !
 Normal termination of Gaussian 16 at Wed Sep 23 11:39:06 2020.

 ----------------------------------------------------------------------
 #p b3lyp/6-31G(d) scrf=(iefpcm,read,solvent=water) geom=allcheck guess
 =read
 ----------------------------------------------------------------------

 Structure from the checkpoint file:  "SM46_m0.n.1.pdb.xyz.mst.n.w.chk"
 -------------------
 SM46_m0.n.1.pdb.xyz
 -------------------
 Charge =  0 Multiplicity = 1

 SCF Done:  E(RB3LYP) =  -1211.18879978     A.U. after    4 cycles
 Normal termination of Gaussian 16 at Wed Sep 23 11:39:34 2020.

 -----------------------------
 #p B3LYP/6-31G* geom=allcheck
 -----------------------------

 Structure from the checkpoint file:  "SM46_m0.n.1.pdb.xyz.mst.n.w.chk"
 -------------------
 SM46_m0.n.1.pdb.xyz
 -------------------
 Charge =  0 Multiplicity = 1

 SCF Done:  E(RB3LYP) =  -1211.16579467     A.U. after   15 cycles
 Normal termination of Gaussian 16 at Wed Sep 23 11:40:15 2020.
 Gaussian 16:  ES64L-G16RevB.01 20-Dec-2017

 ----------------------------------------------------------------------
 #p mp2/aug-cc-pVDZ scf=(MaxCycle=2000,NoVarAcc,NoIncFock) maxdisk=120G
 B geom=allcheck
 ----------------------------------------------------------------------

 Structure from the checkpoint file:  "SM46_m0.n.1.pdb.xyz.mst.n.w.chk"
 -------------------
 SM46_m0.n.1.pdb.xyz
 -------------------
 Charge =  0 Multiplicity = 1

                         Standard orientation:
 ---------------------------------------------------------------------
 Center     Atomic      Atomic             Coordinates (Angstroms)
 Number     Number       Type             X           Y           Z
 ---------------------------------------------------------------------
      1          8           0       -2.513554   -0.280234   -1.742287
      2         16           0       -2.947325   -0.293976   -0.340835
      3          7           0       -1.900955   -1.180938    0.656235
      4          6           0       -0.523068   -1.172977    0.369247
      5          7           0        0.130327   -2.291827   -0.045657
      6          7           0        1.400937   -2.009655   -0.186256
      7          6           0        0.383869   -0.141763    0.485785
      8          7           0        1.564826   -0.702426    0.120034
      9          6           0        2.848478   -0.087932    0.039511
     10          6           0        2.938575    1.289830   -0.166735
     11          6           0        4.196694    1.885926   -0.236785
     12          6           0        5.351910    1.111574   -0.115450
     13          6           0        5.246463   -0.267049    0.083172
     14          6           0        3.995162   -0.875315    0.168652
     15          7           0       -2.661881    1.240271    0.261159
     16          6           0       -2.951586    2.339668   -0.676990
     17          6           0       -3.163554    1.466801    1.627350
     18          8           0       -4.281546   -0.821147   -0.019299
     19          1           0       -2.277486   -2.124209    0.770827
     20          1           0        0.285409    0.881945    0.799710
     21          1           0        2.040787    1.884725   -0.284215
     22          1           0        4.269431    2.955922   -0.396960
     23          1           0        6.328554    1.579125   -0.175529
     24          1           0        6.139900   -0.873640    0.182062
     25          1           0        3.898566   -1.940007    0.336217
     26          1           0       -2.507307    2.116191   -1.644340
     27          1           0       -2.488162    3.239015   -0.268189
     28          1           0       -4.027017    2.516895   -0.794500
     29          1           0       -2.858700    0.638912    2.266713
     30          1           0       -4.253759    1.573946    1.654662
     31          1           0       -2.702660    2.385293    1.994432
 ---------------------------------------------------------------------

 SCF Done:  E(RHF) =  -1205.69990206     A.U. after   17 cycles
 E2 =    -0.2809831742D+01 EUMP2 =    -0.12085097338067D+04

 The electronic state is 1-A.
 Alpha  occ. eigenvalues --  -92.24875 -20.56616 -20.56501 -15.68931 -15.66199
 Alpha  occ. eigenvalues --  -15.63104 -15.62456 -15.62120 -11.31953 -11.31670
 Alpha  occ. eigenvalues --  -11.30291 -11.28715 -11.28520 -11.26969 -11.26719
 Alpha  occ. eigenvalues --  -11.26538 -11.26336 -11.26111  -9.21370  -6.89912
 Alpha  occ. eigenvalues --   -6.89866  -6.89831  -1.47405  -1.45807  -1.34371
 Alpha  occ. eigenvalues --   -1.27915  -1.26166  -1.23520  -1.16718  -1.08932
 Alpha  occ. eigenvalues --   -1.04478  -1.03998  -0.99105  -0.96350  -0.90544
 Alpha  occ. eigenvalues --   -0.87932  -0.84232  -0.82344  -0.80778  -0.77061
 Alpha  occ. eigenvalues --   -0.73227  -0.71456  -0.70615  -0.68580  -0.67416
 Alpha  occ. eigenvalues --   -0.67086  -0.66010  -0.64657  -0.63361  -0.62393
 Alpha  occ. eigenvalues --   -0.61472  -0.61268  -0.58832  -0.57899  -0.55311
 Alpha  occ. eigenvalues --   -0.54624  -0.54176  -0.53606  -0.52360  -0.51771
 Alpha  occ. eigenvalues --   -0.51026  -0.50003  -0.48582  -0.47169  -0.45401
 Alpha  occ. eigenvalues --   -0.43874  -0.41845  -0.36395  -0.36050  -0.33183
 Alpha virt. eigenvalues --    0.02190   0.03113   0.03701   0.04253   0.04575
 Alpha virt. eigenvalues --    0.05051   0.05904   0.06017   0.06545   0.06833
 Alpha virt. eigenvalues --    0.07548   0.07567   0.07924   0.08835   0.09426

 Mulliken charges:
               1
     1  O   -1.143324
     2  S    3.313506
     3  N   -0.932873
     4  C    0.475360
     5  N   -0.582393
     6  N   -0.414720
     7  C    1.185498
     8  N   -0.728760
     9  C    0.930784
    10  C    0.330857
    11  C    0.526132
    12  C    0.604351
    13  C    0.554011
    14  C    0.531952
    15  N   -1.077456
    16  C    0.760549
    17  C    0.715236
    18  O   -1.169452
    19  H   -0.066727
    20  H   -0.607304
    21  H   -0.644593
    22  H   -0.445259
    23  H   -0.444278
    24  H   -0.433408
    25  H   -0.526272
    26  H   -0.140068
    27  H   -0.161534
    28  H   -0.093656
    29  H   -0.095851
    30  H   -0.065331
    31  H   -0.154981
 Sum of Mulliken charges =  -0.00000

 Dipole moment (field-independent basis, Debye):
    X=              3.5326    Y=              6.0336    Z=              3.5811  Tot=              7.8554
 Quadrupole moment (field-independent basis, Debye-Ang):
   XX=           -110.1613   YY=           -108.1100   ZZ=           -120.2121
   XY=             -6.8598   XZ=             -7.2665   YZ=             -3.8993

 Normal termination of Gaussian 16 at Wed Sep 23 12:25:27 2020.
