 Gaussian 16, Revision B.01,

 ----------------------------------------------------------------------
 #p b3lyp/6-31G(d) opt freq NoSymm scf=(MaxCycle=2000,NoVarAcc,NoIncFoc
 k) scrf=(iefpcm,read,solvent=water)
 ----------------------------------------------------------------------

 -------------------
 SM46_m2.b.3.pdb.xyz
 -------------------
 Symbolic Z-matrix:
 Charge =  1 Multiplicity = 1

 SCF Done:  E(RB3LYP) =  -1211.63550063     A.U. after   13 cycles
 SCF Done:  E(RB3LYP) =  -1211.63550443     A.U. after    8 cycles
 SCF Done:  E(RB3LYP) =  -1211.63550222     A.U. after    7 cycles
 Optimization completed.
    -- Stationary point found.
 Normal termination of Gaussian 16 at Mon Sep 28 08:25:50 2020.

 --------------------------------------------------------------------
 #P Geom=AllCheck Guess=TCheck SCRF=Check GenChk RB3LYP/6-31G(d) Freq
 --------------------------------------------------------------------

 Structure from the checkpoint file:  "SM46_m2.b.3.pdb.xyz.mst.b.w.chk"
 -------------------
 SM46_m2.b.3.pdb.xyz
 -------------------
 Charge =  1 Multiplicity = 1

 SCF Done:  E(RB3LYP) =  -1211.63550222     A.U. after    1 cycles

  Exact polarizability: 297.458  14.444 171.717  18.346 -40.243 172.430
 Approx polarizability: 310.342  17.079 208.841  25.846 -58.348 209.830

                      1                      2                      3
                      A                      A                      A
 Frequencies --     27.7931                39.2916                53.4562
 Red. masses --      3.8592                 5.4458                 4.3155
 Frc consts  --      0.0018                 0.0050                 0.0073
 IR Inten    --      0.7732                 5.7957                 4.9557

                      4                      5                      6
                      A                      A                      A
 Frequencies --     84.9127                93.1033                99.2323
 Red. masses --      3.5905                 5.0162                 4.0889
 Frc consts  --      0.0153                 0.0256                 0.0237
 IR Inten    --      1.3549                 3.6110                 3.6227

                      7                      8                      9
                      A                      A                      A
 Frequencies --    153.1369               167.4778               196.6616
 Red. masses --      5.4752                 2.2469                 1.4315
 Frc consts  --      0.0757                 0.0371                 0.0326
 IR Inten    --      8.0960                 2.9263                 0.7625

                     10                     11                     12
                      A                      A                      A
 Frequencies --    240.7152               252.0565               260.8982
 Red. masses --      1.1329                 5.5788                 4.2598
 Frc consts  --      0.0387                 0.2088                 0.1708
 IR Inten    --      0.8894                 0.7029                 1.7930

                     13                     14                     15
                      A                      A                      A
 Frequencies --    282.4037               302.0361               328.7743
 Red. masses --      4.2722                 7.9869                 4.0067
 Frc consts  --      0.2007                 0.4293                 0.2552
 IR Inten    --      1.6723                 3.1473                25.7215

                     16                     17                     18
                      A                      A                      A
 Frequencies --    365.9641               388.8150               405.8595
 Red. masses --      3.3209                 5.7587                 5.1074
 Frc consts  --      0.2621                 0.5129                 0.4957
 IR Inten    --     19.6560                 2.0125                14.7242

                     19                     20                     21
                      A                      A                      A
 Frequencies --    418.1399               459.1814               478.9069
 Red. masses --      3.0404                 5.6143                 5.4676
 Frc consts  --      0.3132                 0.6975                 0.7388
 IR Inten    --      0.7501                32.3075                16.4122

                     22                     23                     24
                      A                      A                      A
 Frequencies --    485.8757               515.7526               531.2319
 Red. masses --      4.2777                 2.0755                 3.5721
 Frc consts  --      0.5950                 0.3253                 0.5939
 IR Inten    --     13.4743               147.5119                83.6646

                     25                     26                     27
                      A                      A                      A
 Frequencies --    556.1639               626.6948               669.8436
 Red. masses --      8.2599                 6.4107                 1.3948
 Frc consts  --      1.5053                 1.4834                 0.3687
 IR Inten    --    193.1862                 0.9107               106.0607

                     28                     29                     30
                      A                      A                      A
 Frequencies --    673.3160               688.3422               698.7916
 Red. masses --      4.3891                 6.8375                 2.3845
 Frc consts  --      1.1724                 1.9088                 0.6860
 IR Inten    --      8.8068               261.2508                41.7779

                     31                     32                     33
                      A                      A                      A
 Frequencies --    702.5673               705.7815               778.5842
 Red. masses --      3.6033                 3.4584                 2.2613
 Frc consts  --      1.0479                 1.0150                 0.8077
 IR Inten    --     65.5219                90.0480                36.4708

                     34                     35                     36
                      A                      A                      A
 Frequencies --    779.8357               808.6188               826.7606
 Red. masses --      1.5740                 2.1227                 4.5071
 Frc consts  --      0.5640                 0.8178                 1.8151
 IR Inten    --    104.7279                30.4750               194.5687

                     37                     38                     39
                      A                      A                      A
 Frequencies --    853.3374               946.1240               951.8049
 Red. masses --      1.2535                 1.3676                 3.0777
 Frc consts  --      0.5378                 0.7213                 1.6427
 IR Inten    --      0.3013                 7.1857               168.9251

                     40                     41                     42
                      A                      A                      A
 Frequencies --    988.0766              1007.1218              1018.5367
 Red. masses --      1.3479                 8.1588                 1.2889
 Frc consts  --      0.7753                 4.8757                 0.7878
 IR Inten    --      0.3276                22.4629                 0.2925

                     43                     44                     45
                      A                      A                      A
 Frequencies --   1022.6567              1055.0907              1071.1673
 Red. masses --      6.2137                 2.2055                 2.3524
 Frc consts  --      3.8288                 1.4466                 1.5903
 IR Inten    --      1.3088                 7.1357                64.2688

                     46                     47                     48
                      A                      A                      A
 Frequencies --   1071.7573              1106.2117              1116.3091
 Red. masses --      1.5727                 3.2581                 1.5963
 Frc consts  --      1.0643                 2.3490                 1.1720
 IR Inten    --     35.7113                57.7491                36.5208

                     49                     50                     51
                      A                      A                      A
 Frequencies --   1119.1688              1135.4072              1173.7512
 Red. masses --      8.5596                 1.2151                 1.3540
 Frc consts  --      6.3168                 0.9229                 1.0991
 IR Inten    --    298.7308                 2.0058                 1.2606

                     52                     53                     54
                      A                      A                      A
 Frequencies --   1194.4562              1203.5588              1212.6163
 Red. masses --      1.0988                 1.4295                 1.4398
 Frc consts  --      0.9237                 1.2200                 1.2474
 IR Inten    --      0.5475                43.3880                55.4137

                     55                     56                     57
                      A                      A                      A
 Frequencies --   1223.5680              1245.2458              1291.1242
 Red. masses --      3.6923                 2.6639                 1.9951
 Frc consts  --      3.2569                 2.4337                 1.9595
 IR Inten    --     24.5196                 6.0915                33.2117

                     58                     59                     60
                      A                      A                      A
 Frequencies --   1320.9206              1346.3774              1358.4996
 Red. masses --      5.8113                 2.4337                 3.7287
 Frc consts  --      5.9741                 2.5992                 4.0544
 IR Inten    --    177.3913                22.7453               158.4043

                     61                     62                     63
                      A                      A                      A
 Frequencies --   1371.5816              1390.8503              1415.1639
 Red. masses --      2.9698                 2.2301                 2.6446
 Frc consts  --      3.2918                 2.5417                 3.1204
 IR Inten    --      3.5210                 4.0949               169.6965

                     64                     65                     66
                      A                      A                      A
 Frequencies --   1457.9500              1461.7141              1470.9532
 Red. masses --      1.1533                 3.6574                 1.1465
 Frc consts  --      1.4444                 4.6041                 1.4616
 IR Inten    --      1.9614                20.9335                 1.8512

                     67                     68                     69
                      A                      A                      A
 Frequencies --   1501.7573              1503.2132              1514.3033
 Red. masses --      1.1932                 1.6865                 1.0599
 Frc consts  --      1.5855                 2.2453                 1.4320
 IR Inten    --     11.9481                10.0052                45.4381

                     70                     71                     72
                      A                      A                      A
 Frequencies --   1520.7417              1522.9945              1541.2027
 Red. masses --      1.0585                 2.6046                 1.0524
 Frc consts  --      1.4422                 3.5595                 1.4728
 IR Inten    --     22.1715                20.7587                14.6672

                     73                     74                     75
                      A                      A                      A
 Frequencies --   1544.0234              1645.3732              1655.4323
 Red. masses --      2.4153                 5.5674                 5.6137
 Frc consts  --      3.3925                 8.8803                 9.0640
 IR Inten    --     39.6924               464.9121                41.6055

                     76                     77                     78
                      A                      A                      A
 Frequencies --   1663.5304              3064.4577              3071.9177
 Red. masses --      6.1643                 1.0424                 1.0403
 Frc consts  --     10.0507                 5.7674                 5.7843
 IR Inten    --    119.1287                47.9380                48.1173

                     79                     80                     81
                      A                      A                      A
 Frequencies --   3147.5134              3150.2761              3205.1264
 Red. masses --      1.0966                 1.1005                 1.1023
 Frc consts  --      6.4006                 6.4347                 6.6719
 IR Inten    --     40.4392                 6.4033                 4.5310

                     82                     83                     84
                      A                      A                      A
 Frequencies --   3207.0237              3222.8135              3231.1815
 Red. masses --      1.1020                 1.0867                 1.0900
 Frc consts  --      6.6780                 6.6500                 6.7052
 IR Inten    --      4.4656                 0.0527                13.3133

                     85                     86                     87
                      A                      A                      A
 Frequencies --   3239.2952              3246.4932              3258.6773
 Red. masses --      1.0937                 1.0962                 1.0941
 Frc consts  --      6.7614                 6.8069                 6.8452
 IR Inten    --     29.7419                 8.6520                 1.3563

                     88                     89                     90
                      A                      A                      A
 Frequencies --   3357.0241              3512.9919              3544.2747
 Red. masses --      1.1011                 1.0772                 1.0862
 Frc consts  --      7.3112                 7.8323                 8.0390
 IR Inten    --     25.7793               238.6504               530.4196

 - Thermochemistry -
 -------------------
 Temperature   298.150 Kelvin.  Pressure   1.00000 Atm.
 Atom     1 has atomic number  8 and mass  15.99491

 Molecular mass:   268.08682 amu.
 Principal axes and moments of inertia in atomic units:
                           1         2         3
     Eigenvalues --  1692.72896********************
           X            0.99985   0.01637   0.00543
           Y           -0.01651   0.99949   0.02716
           Z           -0.00498  -0.02725   0.99962
 This molecule is an asymmetric top.
 Rotational symmetry number  1.
 Warning -- assumption of classical behavior for rotation
           may cause significant error
 Rotational temperatures (Kelvin)      0.05117     0.00783     0.00767
 Rotational constants (GHZ):           1.06617     0.16308     0.15988
 Zero-point vibrational energy     668830.4 (Joules/Mol)
                                  159.85431 (Kcal/Mol)
 Warning -- explicit consideration of  25 degrees of freedom as
           vibrations may cause significant error
 Vibrational temperatures:     39.99    56.53    76.91   122.17   133.95
          (Kelvin)            142.77   220.33   240.96   282.95   346.34
                              362.65   375.37   406.32   434.56   473.03
                              526.54   559.42   583.94   601.61   660.66
                              689.04   699.07   742.05   764.32   800.20
                              901.67   963.76   968.75   990.37  1005.41
                             1010.84  1015.46  1120.21  1122.01  1163.42
                             1189.52  1227.76  1361.26  1369.43  1421.62
                             1449.02  1465.45  1471.37  1518.04  1541.17
                             1542.02  1591.59  1606.12  1610.23  1633.60
                             1688.77  1718.56  1731.65  1744.68  1760.44
                             1791.63  1857.64  1900.51  1937.14  1954.58
                             1973.40  2001.12  2036.11  2097.66  2103.08
                             2116.37  2160.69  2162.79  2178.74  2188.01
                             2191.25  2217.45  2221.51  2367.33  2381.80
                             2393.45  4409.07  4419.80  4528.57  4532.54
                             4611.46  4614.19  4636.91  4648.95  4660.62
                             4670.98  4688.51  4830.01  5054.41  5099.42

 Zero-point correction=                           0.254744 (Hartree/Particle)
 Thermal correction to Energy=                    0.271356
 Thermal correction to Enthalpy=                  0.272301
 Thermal correction to Gibbs Free Energy=         0.209331
 Sum of electronic and zero-point Energies=          -1211.380758
 Sum of electronic and thermal Energies=             -1211.364146
 Sum of electronic and thermal Enthalpies=           -1211.363202
 Sum of electronic and thermal Free Energies=        -1211.426171

                     E (Thermal)             CV                S
                      KCal/Mol        Cal/Mol-Kelvin    Cal/Mol-Kelvin
 Total                  170.279             63.554            132.531
 Electronic               0.000              0.000              0.000
 Translational            0.889              2.981             42.657
 Rotational               0.889              2.981             33.713
 Vibrational            168.501             57.593             56.160
 Vibration     1          0.593              1.984              5.981
 Vibration     2          0.594              1.981              5.294
 Vibration     3          0.596              1.976              4.685
 Vibration     4          0.601              1.960              3.774
 Vibration     5          0.602              1.954              3.594
 Vibration     6          0.604              1.950              3.469
 Vibration     7          0.619              1.899              2.633
 Vibration     8          0.624              1.882              2.464
 Vibration     9          0.636              1.845              2.164
 Vibration    10          0.658              1.778              1.798
 Vibration    11          0.664              1.759              1.716
 Vibration    12          0.669              1.744              1.656
 Vibration    13          0.681              1.706              1.519
 Vibration    14          0.694              1.670              1.406
 Vibration    15          0.712              1.618              1.266
 Vibration    16          0.739              1.542              1.097
 Vibration    17          0.757              1.494              1.005
 Vibration    18          0.771              1.457              0.941
 Vibration    19          0.781              1.431              0.898
 Vibration    20          0.817              1.341              0.768
 Vibration    21          0.835              1.297              0.713
 Vibration    22          0.842              1.281              0.694
 Vibration    23          0.871              1.215              0.620
 Vibration    24          0.886              1.181              0.584
 Vibration    25          0.912              1.126              0.532

                           ! Non-Optimized Parameters !
 Normal termination of Gaussian 16 at Mon Sep 28 08:35:26 2020.

 ----------------------------------------------------------------------
 #p b3lyp/6-31G(d) scrf=(iefpcm,read,solvent=water) geom=allcheck guess
 =read
 ----------------------------------------------------------------------

 Structure from the checkpoint file:  "SM46_m2.b.3.pdb.xyz.mst.b.w.chk"
 -------------------
 SM46_m2.b.3.pdb.xyz
 -------------------
 Charge =  1 Multiplicity = 1

 SCF Done:  E(RB3LYP) =  -1211.63535865     A.U. after    7 cycles
 Normal termination of Gaussian 16 at Mon Sep 28 08:36:03 2020.

 -----------------------------
 #p B3LYP/6-31G* geom=allcheck
 -----------------------------

 Structure from the checkpoint file:  "SM46_m2.b.3.pdb.xyz.mst.b.w.chk"
 -------------------
 SM46_m2.b.3.pdb.xyz
 -------------------
 Charge =  1 Multiplicity = 1

 SCF Done:  E(RB3LYP) =  -1211.53671806     A.U. after   16 cycles
 Normal termination of Gaussian 16 at Mon Sep 28 08:36:50 2020.
 Gaussian 16:  ES64L-G16RevB.01 20-Dec-2017

 ----------------------------------------------------------------------
 #p mp2/aug-cc-pVDZ scf=(MaxCycle=2000,NoVarAcc,NoIncFock) maxdisk=120G
 B geom=allcheck
 ----------------------------------------------------------------------

 Structure from the checkpoint file:  "SM46_m2.b.3.pdb.xyz.mst.b.w.chk"
 -------------------
 SM46_m2.b.3.pdb.xyz
 -------------------
 Charge =  1 Multiplicity = 1

                         Standard orientation:
 ---------------------------------------------------------------------
 Center     Atomic      Atomic             Coordinates (Angstroms)
 Number     Number       Type             X           Y           Z
 ---------------------------------------------------------------------
      1          8           0       -4.245036   -0.332994   -1.200220
      2         16           0       -3.159415   -0.382268   -0.228761
      3          7           0       -1.751395   -0.130772   -1.200279
      4          6           0       -0.477361   -0.368415   -0.729441
      5          7           0       -0.086268   -1.519068   -0.116608
      6          7           0        1.197181   -1.536223    0.186037
      7          6           0        0.676919    0.385993   -0.820626
      8          7           0        1.650770   -0.379378   -0.256393
      9          6           0        3.035756   -0.044297   -0.088032
     10          6           0        3.623910    0.860291   -0.970668
     11          6           0        4.967017    1.187524   -0.794728
     12          6           0        5.703121    0.608996    0.240825
     13          6           0        5.094836   -0.299001    1.110286
     14          6           0        3.751319   -0.630014    0.956532
     15          7           0       -3.396576    0.846768    0.849006
     16          6           0       -2.508372    0.914018    2.021174
     17          6           0       -3.826877    2.147500    0.309432
     18          8           0       -2.848998   -1.588703    0.535331
     19          1           0       -1.829889    0.700137   -1.791275
     20          1           0        0.848109    1.373279   -1.210312
     21          1           0        3.054295    1.289586   -1.785558
     22          1           0        5.436391    1.888629   -1.474939
     23          1           0        6.748332    0.865588    0.370944
     24          1           0        5.662700   -0.745810    1.918048
     25          1           0        3.260980   -1.319225    1.631228
     26          1           0       -2.271096   -0.093849    2.355005
     27          1           0       -3.055005    1.430562    2.812086
     28          1           0       -1.587600    1.465423    1.803942
     29          1           0       -4.539882    1.988271   -0.496829
     30          1           0       -2.979113    2.741689   -0.049485
     31          1           0       -4.321183    2.685252    1.120302
     32          1           0       -0.661728   -2.324525    0.135282
 ---------------------------------------------------------------------

 SCF Done:  E(RHF) =  -1206.06580509     A.U. after   17 cycles
 E2 =    -0.2802677535D+01 EUMP2 =    -0.12088684826276D+04

 The electronic state is 1-A.
 Alpha  occ. eigenvalues --  -92.38817 -20.70448 -20.69338 -15.89330 -15.86998
 Alpha  occ. eigenvalues --  -15.86828 -15.78803 -15.74881 -11.53521 -11.47652
 Alpha  occ. eigenvalues --  -11.44532 -11.40158 -11.39757 -11.39593 -11.39041
 Alpha  occ. eigenvalues --  -11.38006 -11.37842 -11.37711  -9.35175  -7.03738
 Alpha  occ. eigenvalues --   -7.03691  -7.03635  -1.67840  -1.61252  -1.48563
 Alpha  occ. eigenvalues --   -1.46798  -1.41717  -1.38464  -1.30160  -1.28574
 Alpha  occ. eigenvalues --   -1.19390  -1.16534  -1.10675  -1.09859  -1.08531
 Alpha  occ. eigenvalues --   -1.06454  -1.00140  -0.97605  -0.95602  -0.92996
 Alpha  occ. eigenvalues --   -0.88639  -0.87620  -0.87366  -0.86628  -0.83374
 Alpha  occ. eigenvalues --   -0.82033  -0.81565  -0.79275  -0.77101  -0.76925
 Alpha  occ. eigenvalues --   -0.74940  -0.74076  -0.73635  -0.71860  -0.70835
 Alpha  occ. eigenvalues --   -0.69708  -0.69159  -0.66686  -0.66529  -0.65430
 Alpha  occ. eigenvalues --   -0.64781  -0.63953  -0.63679  -0.62178  -0.61607
 Alpha  occ. eigenvalues --   -0.60647  -0.55779  -0.51367  -0.47817  -0.47335
 Alpha virt. eigenvalues --   -0.09377  -0.07682  -0.05736  -0.05322  -0.04695
 Alpha virt. eigenvalues --   -0.03703  -0.03573  -0.03226  -0.02636  -0.02365
 Alpha virt. eigenvalues --   -0.02208  -0.01839  -0.01173  -0.00773  -0.00439

 Mulliken charges:
               1
     1  O   -1.014871
     2  S    2.871756
     3  N   -0.619866
     4  C    0.445033
     5  N   -0.254922
     6  N   -0.359465
     7  C    1.284023
     8  N   -0.553611
     9  C    0.956099
    10  C    0.051832
    11  C    0.758216
    12  C    0.617058
    13  C    0.607331
    14  C    0.431576
    15  N   -1.120195
    16  C    0.960351
    17  C    0.685262
    18  O   -1.121754
    19  H   -0.025265
    20  H   -0.513367
    21  H   -0.654505
    22  H   -0.417246
    23  H   -0.418535
    24  H   -0.412224
    25  H   -0.527997
    26  H   -0.168229
    27  H   -0.166915
    28  H   -0.068930
    29  H   -0.124453
    30  H   -0.031011
    31  H   -0.120834
    32  H    0.025655
 Sum of Mulliken charges =   1.00000

 Dipole moment (field-independent basis, Debye):
    X=              5.9100    Y=              4.3792    Z=              0.3259  Tot=              7.3629
 Quadrupole moment (field-independent basis, Debye-Ang):
   XX=            -71.1718   YY=            -98.8504   ZZ=           -101.8337
   XY=            -10.6479   XZ=             -5.5988   YZ=             -5.6658

 Normal termination of Gaussian 16 at Mon Sep 28 09:58:14 2020.
