 Gaussian 16, Revision B.01,

 ----------------------------------------------------------------------
 #p b3lyp/6-31G(d) opt freq NoSymm scf=(MaxCycle=2000,NoVarAcc,NoIncFoc
 k) scrf=(iefpcm,read,solvent=water)
 ----------------------------------------------------------------------

 -------------------
 SM46_m3.b.8.pdb.xyz
 -------------------
 Symbolic Z-matrix:
 Charge =  2 Multiplicity = 1

 SCF Done:  E(RB3LYP) =  -1212.06164300     A.U. after   13 cycles
 SCF Done:  E(RB3LYP) =  -1212.06153902     A.U. after   10 cycles
 SCF Done:  E(RB3LYP) =  -1212.06146733     A.U. after    9 cycles
 SCF Done:  E(RB3LYP) =  -1212.06163663     A.U. after   10 cycles
 SCF Done:  E(RB3LYP) =  -1212.06164398     A.U. after    8 cycles
 SCF Done:  E(RB3LYP) =  -1212.06149854     A.U. after   10 cycles
 SCF Done:  E(RB3LYP) =  -1212.06152858     A.U. after    8 cycles
 SCF Done:  E(RB3LYP) =  -1212.06163859     A.U. after   10 cycles
 SCF Done:  E(RB3LYP) =  -1212.06164374     A.U. after    8 cycles
 SCF Done:  E(RB3LYP) =  -1212.06164397     A.U. after    7 cycles
 SCF Done:  E(RB3LYP) =  -1212.06163586     A.U. after   10 cycles
 SCF Done:  E(RB3LYP) =  -1212.06163574     A.U. after    4 cycles
 SCF Done:  E(RB3LYP) =  -1212.06163571     A.U. after    4 cycles
 SCF Done:  E(RB3LYP) =  -1212.06151799     A.U. after   10 cycles
 SCF Done:  E(RB3LYP) =  -1212.06151794     A.U. after    8 cycles
 SCF Done:  E(RB3LYP) =  -1212.06151802     A.U. after    7 cycles
 Optimization completed.
    -- Stationary point found.
 Normal termination of Gaussian 16 at Thu Sep 24 18:39:38 2020.

 --------------------------------------------------------------------
 #P Geom=AllCheck Guess=TCheck SCRF=Check GenChk RB3LYP/6-31G(d) Freq
 --------------------------------------------------------------------

 Structure from the checkpoint file:  "SM46_m3.b.8.pdb.xyz.mst.b.w.chk"
 -------------------
 SM46_m3.b.8.pdb.xyz
 -------------------
 Charge =  2 Multiplicity = 1

 SCF Done:  E(RB3LYP) =  -1212.06151802     A.U. after    1 cycles

  Exact polarizability: 294.433 -12.723 211.448   6.670  -8.788 125.990
 Approx polarizability: 313.953 -13.033 261.312  14.487  -8.516 147.643

                      1                      2                      3
                      A                      A                      A
 Frequencies --     20.0620                33.4776                42.0542
 Red. masses --      4.6710                 4.0860                 4.8912
 Frc consts  --      0.0011                 0.0027                 0.0051
 IR Inten    --      2.2702                 5.3108                 5.2005

                      4                      5                      6
                      A                      A                      A
 Frequencies --     71.6610                90.1537               129.3632
 Red. masses --      6.4890                 4.8647                 2.7131
 Frc consts  --      0.0196                 0.0233                 0.0268
 IR Inten    --      1.5585                 1.4318                 0.9077

                      7                      8                      9
                      A                      A                      A
 Frequencies --    134.8539               189.4210               216.2031
 Red. masses --      5.6293                 4.9918                 2.9867
 Frc consts  --      0.0603                 0.1055                 0.0823
 IR Inten    --      6.2484                 5.3896                 5.2391

                     10                     11                     12
                      A                      A                      A
 Frequencies --    244.5596               259.6394               267.7189
 Red. masses --      1.2131                 5.7205                 3.7368
 Frc consts  --      0.0427                 0.2272                 0.1578
 IR Inten    --      0.1679                20.0559                 4.3407

                     13                     14                     15
                      A                      A                      A
 Frequencies --    293.2426               304.6198               348.1251
 Red. masses --      2.9714                 5.7022                 1.9241
 Frc consts  --      0.1505                 0.3118                 0.1374
 IR Inten    --     10.0893                 7.1298               119.0143

                     16                     17                     18
                      A                      A                      A
 Frequencies --    359.9198               389.6010               393.5459
 Red. masses --      1.9116                 2.6041                 3.5788
 Frc consts  --      0.1459                 0.2329                 0.3266
 IR Inten    --     23.0123                88.7908                39.7645

                     19                     20                     21
                      A                      A                      A
 Frequencies --    418.9197               426.4878               451.9025
 Red. masses --      3.0095                 3.9645                 2.9400
 Frc consts  --      0.3112                 0.4249                 0.3537
 IR Inten    --      0.4666                 3.9950                 4.3450

                     22                     23                     24
                      A                      A                      A
 Frequencies --    455.2543               468.1630               532.7754
 Red. masses --      4.4763                 3.5297                 7.3168
 Frc consts  --      0.5466                 0.4558                 1.2237
 IR Inten    --     11.0038                 3.2843                76.0244

                     25                     26                     27
                      A                      A                      A
 Frequencies --    540.6610               594.1338               625.5455
 Red. masses --      3.8179                 6.3685                 6.2449
 Frc consts  --      0.6575                 1.3245                 1.4398
 IR Inten    --     10.1668               274.5091                 1.5883

                     28                     29                     30
                      A                      A                      A
 Frequencies --    653.5850               666.4721               698.2939
 Red. masses --      1.2223                 4.8799                 3.3712
 Frc consts  --      0.3076                 1.2771                 0.9685
 IR Inten    --    188.0752                12.2519                55.8566

                     31                     32                     33
                      A                      A                      A
 Frequencies --    700.4550               707.4056               781.4313
 Red. masses --      3.4645                 3.7608                 1.6188
 Frc consts  --      1.0015                 1.1088                 0.5824
 IR Inten    --     28.8194                 0.7095                69.2922

                     34                     35                     36
                      A                      A                      A
 Frequencies --    790.9083               831.8787               858.2522
 Red. masses --      4.4682                 1.6068                 1.2684
 Frc consts  --      1.6468                 0.6551                 0.5505
 IR Inten    --     20.3132                26.5371                 4.9477

                     37                     38                     39
                      A                      A                      A
 Frequencies --    863.2291               904.8721               948.7109
 Red. masses --      3.4212                 5.3058                 1.3552
 Frc consts  --      1.5020                 2.5596                 0.7186
 IR Inten    --     24.0252               216.4375                 7.7862

                     40                     41                     42
                      A                      A                      A
 Frequencies --    989.6842              1007.0966              1008.2400
 Red. masses --      1.3461                 2.4142                 7.9993
 Frc consts  --      0.7768                 1.4426                 4.7910
 IR Inten    --      0.4866                21.7266                17.5387

                     43                     44                     45
                      A                      A                      A
 Frequencies --   1020.1032              1023.1361              1051.9340
 Red. masses --      1.2965                 6.3104                 2.1934
 Frc consts  --      0.7949                 3.8920                 1.4300
 IR Inten    --      0.4117                 1.4647                 6.3851

                     46                     47                     48
                      A                      A                      A
 Frequencies --   1073.6861              1085.3817              1109.6209
 Red. masses --      2.2058                 1.1565                 2.5291
 Frc consts  --      1.4982                 0.8027                 1.8347
 IR Inten    --     96.4511                 9.6603                 6.6359

                     49                     50                     51
                      A                      A                      A
 Frequencies --   1111.6334              1149.3718              1156.0215
 Red. masses --      1.7528                 9.7973                 1.7758
 Frc consts  --      1.2761                 7.6256                 1.3982
 IR Inten    --     13.1201               272.7080                14.4860

                     52                     53                     54
                      A                      A                      A
 Frequencies --   1190.1847              1193.0613              1199.5532
 Red. masses --      1.3347                 1.1036                 1.1552
 Frc consts  --      1.1140                 0.9255                 0.9794
 IR Inten    --     50.2143                 0.7256                 3.5519

                     55                     56                     57
                      A                      A                      A
 Frequencies --   1220.1263              1235.4778              1259.4446
 Red. masses --      2.0611                 2.3342                 1.6157
 Frc consts  --      1.8079                 2.0992                 1.5099
 IR Inten    --     43.4134                 2.6589                 3.8210

                     58                     59                     60
                      A                      A                      A
 Frequencies --   1332.2699              1341.7228              1368.8758
 Red. masses --      3.3008                 2.0116                 3.8631
 Frc consts  --      3.4518                 2.1336                 4.2649
 IR Inten    --      9.7781                14.7524                 8.5132

                     61                     62                     63
                      A                      A                      A
 Frequencies --   1379.9847              1382.0033              1400.0183
 Red. masses --      1.4032                 2.4040                 4.1145
 Frc consts  --      1.5744                 2.7052                 4.7515
 IR Inten    --     78.2100               107.3832               146.0716

                     64                     65                     66
                      A                      A                      A
 Frequencies --   1439.4194              1451.3705              1462.1037
 Red. masses --      2.2158                 1.2719                 3.4243
 Frc consts  --      2.7050                 1.5785                 4.3130
 IR Inten    --     54.9492                16.3626                 5.2737

                     67                     68                     69
                      A                      A                      A
 Frequencies --   1473.8679              1475.6667              1502.5049
 Red. masses --      1.1775                 1.1681                 2.1232
 Frc consts  --      1.5070                 1.4986                 2.8241
 IR Inten    --     23.4678                26.0600                55.3330

                     70                     71                     72
                      A                      A                      A
 Frequencies --   1507.8450              1516.4722              1520.8025
 Red. masses --      1.0640                 1.0516                 2.6137
 Frc consts  --      1.4252                 1.4248                 3.5617
 IR Inten    --     12.4851                49.0257               121.3598

                     73                     74                     75
                      A                      A                      A
 Frequencies --   1535.6376              1540.1045              1559.5057
 Red. masses --      1.0455                 2.3898                 1.0452
 Frc consts  --      1.4526                 3.3397                 1.4978
 IR Inten    --     38.1614                25.0909                35.6453

                     76                     77                     78
                      A                      A                      A
 Frequencies --   1647.5731              1653.7655              1664.2509
 Red. masses --      5.7289                 5.7241                 6.0574
 Frc consts  --      9.1625                 9.2238                 9.8849
 IR Inten    --    187.1806                22.4090               141.7353

                     79                     80                     81
                      A                      A                      A
 Frequencies --   3127.6435              3135.2799              3222.2159
 Red. masses --      1.0300                 1.0318                 1.1082
 Frc consts  --      5.9361                 5.9757                 6.7789
 IR Inten    --      2.7812                 3.2877                 2.0471

                     82                     83                     84
                      A                      A                      A
 Frequencies --   3222.6685              3225.6074              3231.3287
 Red. masses --      1.0868                 1.1064                 1.0899
 Frc consts  --      6.6504                 6.7823                 6.7053
 IR Inten    --      0.1871                 1.3773                11.7211

                     85                     86                     87
                      A                      A                      A
 Frequencies --   3239.1642              3241.2685              3246.2291
 Red. masses --      1.0935                 1.1109                 1.0964
 Frc consts  --      6.7599                 6.8760                 6.8075
 IR Inten    --     27.2495                 2.6175                 9.2826

                     88                     89                     90
                      A                      A                      A
 Frequencies --   3256.4538              3257.6373              3365.6921
 Red. masses --      1.1081                 1.0944                 1.1022
 Frc consts  --      6.9236                 6.8430                 7.3564
 IR Inten    --      4.1386                 1.6380                33.9456

                     91                     92                     93
                      A                      A                      A
 Frequencies --   3370.1966              3474.8980              3508.8785
 Red. masses --      1.0776                 1.0786                 1.0877
 Frc consts  --      7.2115                 7.6732                 7.8903
 IR Inten    --    358.5675               341.4884               655.0807

 - Thermochemistry -
 -------------------
 Temperature   298.150 Kelvin.  Pressure   1.00000 Atm.
 Atom     1 has atomic number  8 and mass  15.99491

 Molecular mass:   269.09465 amu.
 Principal axes and moments of inertia in atomic units:
                           1         2         3
     Eigenvalues --  1799.87103********************
           X            0.99990  -0.01092   0.00940
           Y            0.01073   0.99975   0.01964
           Z           -0.00961  -0.01953   0.99976
 This molecule is an asymmetric top.
 Rotational symmetry number  1.
 Warning -- assumption of classical behavior for rotation
           may cause significant error
 Rotational temperatures (Kelvin)      0.04812     0.00815     0.00784
 Rotational constants (GHZ):           1.00271     0.16990     0.16340
 Zero-point vibrational energy     706228.8 (Joules/Mol)
                                  168.79275 (Kcal/Mol)
 Warning -- explicit consideration of  26 degrees of freedom as
           vibrations may cause significant error
 Vibrational temperatures:     28.86    48.17    60.51   103.10   129.71
          (Kelvin)            186.12   194.02   272.53   311.07   351.87
                              373.56   385.19   421.91   438.28   500.87
                              517.84   560.55   566.22   602.73   613.62
                              650.19   655.01   673.58   766.55   777.89
                              854.83   900.02   940.36   958.90  1004.69
                             1007.80  1017.80  1124.31  1137.94  1196.89
                             1234.83  1241.99  1301.91  1364.98  1423.93
                             1448.99  1450.63  1467.70  1472.06  1513.50
                             1544.79  1561.62  1596.50  1599.39  1653.69
                             1663.26  1712.41  1716.55  1725.89  1755.49
                             1777.58  1812.06  1916.84  1930.44  1969.51
                             1985.49  1988.39  2014.31  2071.00  2088.20
                             2103.64  2120.57  2123.16  2161.77  2169.45
                             2181.87  2188.10  2209.44  2215.87  2243.78
                             2370.49  2379.40  2394.49  4499.98  4510.97
                             4636.05  4636.70  4640.93  4649.16  4660.43
                             4663.46  4670.60  4685.31  4687.01  4842.48
                             4848.96  4999.60  5048.49

 Zero-point correction=                           0.268988 (Hartree/Particle)
 Thermal correction to Energy=                    0.285740
 Thermal correction to Enthalpy=                  0.286684
 Thermal correction to Gibbs Free Energy=         0.222972
 Sum of electronic and zero-point Energies=          -1211.792530
 Sum of electronic and thermal Energies=             -1211.775778
 Sum of electronic and thermal Enthalpies=           -1211.774834
 Sum of electronic and thermal Free Energies=        -1211.838546

                     E (Thermal)             CV                S
                      KCal/Mol        Cal/Mol-Kelvin    Cal/Mol-Kelvin
 Total                  179.304             64.262            134.093
 Electronic               0.000              0.000              0.000
 Translational            0.889              2.981             42.669
 Rotational               0.889              2.981             33.712
 Vibrational            177.527             58.300             57.712
 Vibration     1          0.593              1.986              6.628
 Vibration     2          0.594              1.983              5.612
 Vibration     3          0.595              1.980              5.160
 Vibration     4          0.598              1.968              4.107
 Vibration     5          0.602              1.956              3.657
 Vibration     6          0.612              1.924              2.955
 Vibration     7          0.613              1.919              2.876
 Vibration     8          0.633              1.854              2.233
 Vibration     9          0.645              1.816              1.991
 Vibration    10          0.660              1.772              1.769
 Vibration    11          0.668              1.746              1.664
 Vibration    12          0.673              1.732              1.611
 Vibration    13          0.688              1.686              1.455
 Vibration    14          0.696              1.665              1.391
 Vibration    15          0.726              1.579              1.175
 Vibration    16          0.734              1.555              1.122
 Vibration    17          0.758              1.492              1.002
 Vibration    18          0.761              1.484              0.987
 Vibration    19          0.782              1.429              0.896
 Vibration    20          0.788              1.413              0.870
 Vibration    21          0.811              1.357              0.790
 Vibration    22          0.814              1.349              0.780
 Vibration    23          0.825              1.321              0.743
 Vibration    24          0.888              1.178              0.581
 Vibration    25          0.896              1.160              0.564
 Vibration    26          0.952              1.044              0.460

                           ! Non-Optimized Parameters !
 Normal termination of Gaussian 16 at Thu Sep 24 18:49:25 2020.

 ----------------------------------------------------------------------
 #p b3lyp/6-31G(d) scrf=(iefpcm,read,solvent=water) geom=allcheck guess
 =read
 ----------------------------------------------------------------------

 Structure from the checkpoint file:  "SM46_m3.b.8.pdb.xyz.mst.b.w.chk"
 -------------------
 SM46_m3.b.8.pdb.xyz
 -------------------
 Charge =  2 Multiplicity = 1

 SCF Done:  E(RB3LYP) =  -1212.06147379     A.U. after    7 cycles
 Normal termination of Gaussian 16 at Thu Sep 24 18:50:01 2020.

 -----------------------------
 #p B3LYP/6-31G* geom=allcheck
 -----------------------------

 Structure from the checkpoint file:  "SM46_m3.b.8.pdb.xyz.mst.b.w.chk"
 -------------------
 SM46_m3.b.8.pdb.xyz
 -------------------
 Charge =  2 Multiplicity = 1

 SCF Done:  E(RB3LYP) =  -1211.75673448     A.U. after   16 cycles
 Normal termination of Gaussian 16 at Thu Sep 24 18:50:47 2020.
 Gaussian 16:  ES64L-G16RevB.01 20-Dec-2017

 ----------------------------------------------------------------------
 #p mp2/aug-cc-pVDZ scf=(MaxCycle=2000,NoVarAcc,NoIncFock) maxdisk=120G
 B geom=allcheck
 ----------------------------------------------------------------------

 Structure from the checkpoint file:  "SM46_m3.b.8.pdb.xyz.mst.b.w.chk"
 -------------------
 SM46_m3.b.8.pdb.xyz
 -------------------
 Charge =  2 Multiplicity = 1

                         Standard orientation:
 ---------------------------------------------------------------------
 Center     Atomic      Atomic             Coordinates (Angstroms)
 Number     Number       Type             X           Y           Z
 ---------------------------------------------------------------------
      1          8           0       -3.894465   -0.522676   -1.594754
      2         16           0       -2.776170   -0.604545   -0.681490
      3          7           0       -1.817571    0.710830   -0.930268
      4          6           0       -0.484570    0.799047   -0.548221
      5          7           0        0.044005    1.915294    0.016042
      6          7           0        1.327964    1.801256    0.266505
      7          6           0        0.564045   -0.087478   -0.647763
      8          7           0        1.631009    0.576496   -0.126196
      9          6           0        2.980248    0.100506   -0.003496
     10          6           0        3.197397   -1.249307    0.268726
     11          6           0        4.510567   -1.701964    0.379936
     12          6           0        5.576825   -0.813464    0.229749
     13          6           0        5.334956    0.536161   -0.037262
     14          6           0        4.029612    1.005350   -0.161835
     15          7           0       -3.589818   -0.357993    0.991322
     16          6           0       -2.628978   -0.460870    2.138720
     17          6           0       -4.444892    0.871389    1.027004
     18          8           0       -1.939885   -1.768321   -0.479240
     19          1           0       -2.296864    1.555084   -1.259343
     20          1           0        0.620199   -1.082624   -1.049569
     21          1           0        2.365675   -1.928344    0.411301
     22          1           0        4.695527   -2.748016    0.594665
     23          1           0        6.595763   -1.172081    0.320443
     24          1           0        6.162008    1.225710   -0.159768
     25          1           0        3.824546    2.043868   -0.386661
     26          1           0       -2.014176   -1.345635    1.994561
     27          1           0       -3.226983   -0.561300    3.043401
     28          1           0       -2.024641    0.441554    2.189419
     29          1           0       -5.088305    0.872106    0.150892
     30          1           0       -3.807058    1.751870    1.053417
     31          1           0       -5.046680    0.815880    1.932613
     32          1           0       -4.217553   -1.182251    1.031014
     33          1           0       -0.428314    2.797465    0.234247
 ---------------------------------------------------------------------

 SCF Done:  E(RHF) =  -1206.28097418     A.U. after   18 cycles
 E2 =    -0.2805290385D+01 EUMP2 =    -0.12090862645700D+04

 The electronic state is 1-A.
 Alpha  occ. eigenvalues --  -92.57868 -20.89160 -20.88608 -16.01234 -16.00773
 Alpha  occ. eigenvalues --  -16.00477 -15.99042 -15.96587 -11.66490 -11.60106
 Alpha  occ. eigenvalues --  -11.58146 -11.57916 -11.52986 -11.47910 -11.47354
 Alpha  occ. eigenvalues --  -11.45685 -11.45545 -11.45417  -9.54207  -7.22730
 Alpha  occ. eigenvalues --   -7.22706  -7.22669  -1.80495  -1.79770  -1.67557
 Alpha  occ. eigenvalues --   -1.61222  -1.60587  -1.56481  -1.42288  -1.38831
 Alpha  occ. eigenvalues --   -1.29389  -1.29172  -1.25718  -1.24436  -1.21842
 Alpha  occ. eigenvalues --   -1.19429  -1.16416  -1.12026  -1.07383  -1.06311
 Alpha  occ. eigenvalues --   -1.05149  -1.03629  -1.01481  -1.00959  -0.98789
 Alpha  occ. eigenvalues --   -0.97091  -0.96337  -0.94073  -0.93265  -0.90001
 Alpha  occ. eigenvalues --   -0.89675  -0.87692  -0.86905  -0.85877  -0.85054
 Alpha  occ. eigenvalues --   -0.84934  -0.83703  -0.82639  -0.81770  -0.81195
 Alpha  occ. eigenvalues --   -0.80842  -0.79398  -0.78760  -0.78207  -0.73170
 Alpha  occ. eigenvalues --   -0.72053  -0.71209  -0.66759  -0.55880  -0.55604
 Alpha virt. eigenvalues --   -0.20440  -0.19601  -0.17621  -0.16476  -0.16259
 Alpha virt. eigenvalues --   -0.15201  -0.14004  -0.13004  -0.12668  -0.12419
 Alpha virt. eigenvalues --   -0.11832  -0.11238  -0.10682  -0.10179  -0.09940

 Mulliken charges:
               1
     1  O   -0.958831
     2  S    2.854270
     3  N   -0.889057
     4  C    0.944942
     5  N   -0.428367
     6  N   -0.214894
     7  C    1.097759
     8  N   -0.607959
     9  C    1.040824
    10  C    0.260932
    11  C    0.618191
    12  C    0.575814
    13  C    0.571678
    14  C    0.398350
    15  N   -0.521775
    16  C    0.870311
    17  C    0.783273
    18  O   -1.010726
    19  H   -0.037572
    20  H   -0.477401
    21  H   -0.643688
    22  H   -0.406758
    23  H   -0.404284
    24  H   -0.396833
    25  H   -0.527153
    26  H   -0.103085
    27  H   -0.142234
    28  H   -0.139269
    29  H   -0.098406
    30  H   -0.127401
    31  H   -0.076086
    32  H    0.190239
    33  H    0.005194
 Sum of Mulliken charges =   2.00000

 Dipole moment (field-independent basis, Debye):
    X=             -8.2140    Y=              4.5288    Z=              4.9250  Tot=             10.5941
 Quadrupole moment (field-independent basis, Debye-Ang):
   XX=             11.0320   YY=            -82.6721   ZZ=            -98.9361
   XY=            -11.6289   XZ=            -23.0450   YZ=             -6.4052

 Normal termination of Gaussian 16 at Thu Sep 24 19:36:07 2020.
