 Gaussian 16, Revision B.01,

 ----------------------------------------------------------------------
 #p b3lyp/6-31G(d) opt freq NoSymm scf=(MaxCycle=2000,NoVarAcc,NoIncFoc
 k) scrf=(iefpcm,read,solvent=water)
 ----------------------------------------------------------------------

 -------------------
 SM46_m1.a.1.pdb.xyz
 -------------------
 Symbolic Z-matrix:
 Charge = -1 Multiplicity = 1

 SCF Done:  E(RB3LYP) =  -1210.71717610     A.U. after   13 cycles
 SCF Done:  E(RB3LYP) =  -1210.71707489     A.U. after   10 cycles
 SCF Done:  E(RB3LYP) =  -1210.71705839     A.U. after    9 cycles
 SCF Done:  E(RB3LYP) =  -1210.71717566     A.U. after   10 cycles
 SCF Done:  E(RB3LYP) =  -1210.71717985     A.U. after    8 cycles
 SCF Done:  E(RB3LYP) =  -1210.71698274     A.U. after   10 cycles
 SCF Done:  E(RB3LYP) =  -1210.71703146     A.U. after   11 cycles
 SCF Done:  E(RB3LYP) =  -1210.71717360     A.U. after   10 cycles
 SCF Done:  E(RB3LYP) =  -1210.71717974     A.U. after    9 cycles
 SCF Done:  E(RB3LYP) =  -1210.71704313     A.U. after   10 cycles
 SCF Done:  E(RB3LYP) =  -1210.71715047     A.U. after   11 cycles
 SCF Done:  E(RB3LYP) =  -1210.71715029     A.U. after    5 cycles
 SCF Done:  E(RB3LYP) =  -1210.71710431     A.U. after   10 cycles
 SCF Done:  E(RB3LYP) =  -1210.71696376     A.U. after   11 cycles
 SCF Done:  E(RB3LYP) =  -1210.71693815     A.U. after    8 cycles
 SCF Done:  E(RB3LYP) =  -1210.71694198     A.U. after    7 cycles
 Optimization completed.
    -- Stationary point found.
 Normal termination of Gaussian 16 at Thu Sep 24 17:25:45 2020.

 --------------------------------------------------------------------
 #P Geom=AllCheck Guess=TCheck SCRF=Check GenChk RB3LYP/6-31G(d) Freq
 --------------------------------------------------------------------

 Structure from the checkpoint file:  "SM46_m1.a.1.pdb.xyz.mst.a.w.chk"
 -------------------
 SM46_m1.a.1.pdb.xyz
 -------------------
 Charge = -1 Multiplicity = 1

 SCF Done:  E(RB3LYP) =  -1210.71694198     A.U. after    1 cycles

  Exact polarizability: 302.287  25.183 192.023  12.831 -48.307 167.530
 Approx polarizability: 320.274  34.851 232.097  16.390 -67.134 200.511

                      1                      2                      3
                      A                      A                      A
 Frequencies --     26.1881                35.2691                55.6447
 Red. masses --      4.7125                 4.1403                 3.7367
 Frc consts  --      0.0019                 0.0030                 0.0068
 IR Inten    --      4.1526                 2.5575                 1.8106

                      4                      5                      6
                      A                      A                      A
 Frequencies --     59.3984                79.3699                88.8421
 Red. masses --      3.7915                 6.7366                 5.0965
 Frc consts  --      0.0079                 0.0250                 0.0237
 IR Inten    --      5.6140                 2.3054                 7.3853

                      7                      8                      9
                      A                      A                      A
 Frequencies --    160.0917               181.5231               214.1689
 Red. masses --      6.6064                 1.8949                 1.1309
 Frc consts  --      0.0998                 0.0368                 0.0306
 IR Inten    --      9.0291                 1.7899                 0.6201

                     10                     11                     12
                      A                      A                      A
 Frequencies --    217.9495               233.6773               271.5958
 Red. masses --      1.7431                 3.5467                 4.1843
 Frc consts  --      0.0488                 0.1141                 0.1819
 IR Inten    --      2.1165                 8.3628                 2.1247

                     13                     14                     15
                      A                      A                      A
 Frequencies --    283.7209               333.0777               341.4869
 Red. masses --      7.1148                 7.1013                 3.2904
 Frc consts  --      0.3374                 0.4642                 0.2261
 IR Inten    --      4.0056                 7.8209                 3.5176

                     16                     17                     18
                      A                      A                      A
 Frequencies --    366.1362               404.8244               417.5840
 Red. masses --      4.6018                 7.7001                 5.8482
 Frc consts  --      0.3635                 0.7435                 0.6008
 IR Inten    --      3.4617                 5.8477                 7.3568

                     19                     20                     21
                      A                      A                      A
 Frequencies --    420.3574               456.8626               489.3585
 Red. masses --      3.4117                 6.2791                 5.7781
 Frc consts  --      0.3552                 0.7722                 0.8152
 IR Inten    --      0.9580                 6.6709                14.5295

                     22                     23                     24
                      A                      A                      A
 Frequencies --    504.1351               531.7774               581.3514
 Red. masses --      5.6700                 3.6586                10.0465
 Frc consts  --      0.8490                 0.6096                 2.0005
 IR Inten    --     21.1249                 2.3556               135.3922

                     25                     26                     27
                      A                      A                      A
 Frequencies --    628.7954               642.8294               667.0006
 Red. masses --      6.4093                 7.3145                 4.0203
 Frc consts  --      1.4931                 1.7808                 1.0538
 IR Inten    --      1.1210               294.0177                10.4570

                     28                     29                     30
                      A                      A                      A
 Frequencies --    692.4648               702.2289               706.2803
 Red. masses --      7.2697                 2.3514                 2.2821
 Frc consts  --      2.0538                 0.6832                 0.6707
 IR Inten    --     56.3597                 7.3038                31.0152

                     31                     32                     33
                      A                      A                      A
 Frequencies --    745.7376               758.4007               778.9364
 Red. masses --      2.7109                 7.4007                 1.6397
 Frc consts  --      0.8883                 2.5080                 0.5861
 IR Inten    --     54.3419                86.7764                69.8396

                     34                     35                     36
                      A                      A                      A
 Frequencies --    854.8343               926.2725               931.6104
 Red. masses --      1.2510                 3.3544                 1.3976
 Frc consts  --      0.5386                 1.6957                 0.7147
 IR Inten    --      0.3105               264.7660                 6.7411

                     37                     38                     39
                      A                      A                      A
 Frequencies --    945.5337               982.1888              1005.2271
 Red. masses --      9.9640                 1.3383                 8.3550
 Frc consts  --      5.2486                 0.7606                 4.9742
 IR Inten    --    134.7650                 0.1898                79.1691

                     40                     41                     42
                      A                      A                      A
 Frequencies --   1008.7257              1018.2627              1051.3321
 Red. masses --      1.2587                 5.9959                 2.7631
 Frc consts  --      0.7546                 3.6629                 1.7994
 IR Inten    --      0.4831                 6.2601                19.8362

                     43                     44                     45
                      A                      A                      A
 Frequencies --   1055.2019              1058.4267              1070.3397
 Red. masses --      1.5293                 3.0989                 3.0995
 Frc consts  --      1.0033                 2.0454                 2.0921
 IR Inten    --     23.6969               100.4249               222.7357

                     46                     47                     48
                      A                      A                      A
 Frequencies --   1098.2086              1112.4626              1122.6439
 Red. masses --      4.8812                 1.8676                 1.2368
 Frc consts  --      3.4685                 1.3618                 0.9184
 IR Inten    --    351.0133               144.6412                 9.0038

                     49                     50                     51
                      A                      A                      A
 Frequencies --   1174.8292              1188.2777              1200.7513
 Red. masses --      1.4267                 1.1093                 1.7262
 Frc consts  --      1.1602                 0.9228                 1.4664
 IR Inten    --     15.2898                 0.9454                67.2504

                     52                     53                     54
                      A                      A                      A
 Frequencies --   1203.3613              1214.0769              1226.8941
 Red. masses --      2.6934                 5.5235                 4.3666
 Frc consts  --      2.2979                 4.7968                 3.8727
 IR Inten    --    195.3253               229.5971                21.3816

                     55                     56                     57
                      A                      A                      A
 Frequencies --   1257.7945              1260.4512              1281.4358
 Red. masses --      2.8070                 1.9270                 4.6111
 Frc consts  --      2.6165                 1.8038                 4.4612
 IR Inten    --     45.1365                10.3135               262.1459

                     58                     59                     60
                      A                      A                      A
 Frequencies --   1336.4841              1365.6842              1376.9770
 Red. masses --      3.4028                 2.7560                 3.3743
 Frc consts  --      3.5811                 3.0285                 3.7696
 IR Inten    --     85.4881                 0.3169               270.7038

                     61                     62                     63
                      A                      A                      A
 Frequencies --   1433.9229              1449.8323              1452.6950
 Red. masses --      1.1499                 3.9025                 1.2210
 Frc consts  --      1.3931                 4.8332                 1.5181
 IR Inten    --      0.5079               150.4456                 6.3041

                     64                     65                     66
                      A                      A                      A
 Frequencies --   1498.1891              1509.4979              1511.5042
 Red. masses --      1.0506                 1.0744                 2.4345
 Frc consts  --      1.3894                 1.4424                 3.2771
 IR Inten    --     14.0078                 8.7062                25.1253

                     67                     68                     69
                      A                      A                      A
 Frequencies --   1515.1002              1525.9785              1545.2630
 Red. masses --      1.0468                 1.0481                 2.6925
 Frc consts  --      1.4157                 1.4379                 3.7880
 IR Inten    --      5.8387                15.2134               373.1539

                     70                     71                     72
                      A                      A                      A
 Frequencies --   1576.3124              1651.9460              1657.9513
 Red. masses --      6.1621                 6.3419                 5.6854
 Frc consts  --      9.0212                10.1968                 9.2077
 IR Inten    --    375.8952                 8.1785                47.3064

                     73                     74                     75
                      A                      A                      A
 Frequencies --   3018.8329              3026.2036              3115.4242
 Red. masses --      1.0521                 1.0502                 1.0857
 Frc consts  --      5.6494                 5.6667                 6.2087
 IR Inten    --     93.8275               123.0923                72.2161

                     76                     77                     78
                      A                      A                      A
 Frequencies --   3116.6714              3175.3774              3190.5678
 Red. masses --      1.0890                 1.1007                 1.0989
 Frc consts  --      6.2324                 6.5389                 6.5906
 IR Inten    --     16.9382                19.1665                13.5927

                     79                     80                     81
                      A                      A                      A
 Frequencies --   3210.2422              3218.5770              3229.3042
 Red. masses --      1.0860                 1.0899                 1.0942
 Frc consts  --      6.5942                 6.6522                 6.7231
 IR Inten    --      0.5297                21.7683                47.1711

                     82                     83                     84
                      A                      A                      A
 Frequencies --   3239.6403              3253.5099              3353.4507
 Red. masses --      1.0946                 1.0929                 1.0978
 Frc consts  --      6.7684                 6.8163                 7.2735
 IR Inten    --     11.3079                 2.8091                 7.3286

 - Thermochemistry -
 -------------------
 Temperature   298.150 Kelvin.  Pressure   1.00000 Atm.
 Atom     1 has atomic number  8 and mass  15.99491

 Molecular mass:   266.07117 amu.
 Principal axes and moments of inertia in atomic units:
                           1         2         3
     Eigenvalues --  2014.570399710.49644**********
           X            0.99920   0.03398  -0.02123
           Y           -0.02447   0.93701   0.34844
           Z            0.03173  -0.34764   0.93709
 This molecule is an asymmetric top.
 Rotational symmetry number  1.
 Warning -- assumption of classical behavior for rotation
           may cause significant error
 Rotational temperatures (Kelvin)      0.04299     0.00892     0.00833
 Rotational constants (GHZ):           0.89584     0.18585     0.17350
 Zero-point vibrational energy     597423.1 (Joules/Mol)
                                  142.78755 (Kcal/Mol)
 Warning -- explicit consideration of  24 degrees of freedom as
           vibrations may cause significant error
 Vibrational temperatures:     37.68    50.74    80.06    85.46   114.20
          (Kelvin)            127.82   230.34   261.17   308.14   313.58
                              336.21   390.77   408.21   479.22   491.32
                              526.79   582.45   600.81   604.80   657.32
                              704.08   725.34   765.11   836.43   904.70
                              924.89   959.67   996.30  1010.35  1016.18
                             1072.95  1091.17  1120.72  1229.92  1332.70
                             1340.38  1360.41  1413.15  1446.30  1451.33
                             1465.05  1512.63  1518.20  1522.84  1539.98
                             1580.08  1600.59  1615.23  1690.32  1709.67
                             1727.61  1731.37  1746.79  1765.23  1809.69
                             1813.51  1843.70  1922.90  1964.92  1981.16
                             2063.10  2085.99  2090.10  2155.56  2171.83
                             2174.72  2179.89  2195.54  2223.29  2267.96
                             2376.78  2385.42  4343.43  4354.03  4482.40
                             4484.20  4568.66  4590.52  4618.82  4630.81
                             4646.25  4661.12  4681.08  4824.87

 Zero-point correction=                           0.227546 (Hartree/Particle)
 Thermal correction to Energy=                    0.243841
 Thermal correction to Enthalpy=                  0.244785
 Thermal correction to Gibbs Free Energy=         0.181816
 Sum of electronic and zero-point Energies=          -1210.489396
 Sum of electronic and thermal Energies=             -1210.473101
 Sum of electronic and thermal Enthalpies=           -1210.472157
 Sum of electronic and thermal Free Energies=        -1210.535126

                     E (Thermal)             CV                S
                      KCal/Mol        Cal/Mol-Kelvin    Cal/Mol-Kelvin
 Total                  153.012             61.454            132.529
 Electronic               0.000              0.000              0.000
 Translational            0.889              2.981             42.635
 Rotational               0.889              2.981             33.675
 Vibrational            151.235             55.492             56.219
 Vibration     1          0.593              1.985              6.099
 Vibration     2          0.594              1.982              5.509
 Vibration     3          0.596              1.975              4.606
 Vibration     4          0.597              1.974              4.477
 Vibration     5          0.600              1.963              3.906
 Vibration     6          0.602              1.957              3.685
 Vibration     7          0.622              1.891              2.549
 Vibration     8          0.630              1.865              2.313
 Vibration     9          0.644              1.819              2.008
 Vibration    10          0.646              1.814              1.976
 Vibration    11          0.654              1.789              1.851
 Vibration    12          0.675              1.726              1.586
 Vibration    13          0.682              1.704              1.511
 Vibration    14          0.715              1.609              1.245
 Vibration    15          0.721              1.593              1.205
 Vibration    16          0.739              1.542              1.096
 Vibration    17          0.770              1.460              0.945
 Vibration    18          0.781              1.432              0.900
 Vibration    19          0.783              1.426              0.891
 Vibration    20          0.815              1.346              0.775
 Vibration    21          0.845              1.274              0.685
 Vibration    22          0.859              1.241              0.648
 Vibration    23          0.887              1.180              0.583
 Vibration    24          0.938              1.072              0.483

 Optimization completed.
    -- Stationary point found.
 Normal termination of Gaussian 16 at Thu Sep 24 17:33:45 2020.

 ----------------------------------------------------------------------
 #p b3lyp/6-31G(d) scrf=(iefpcm,read,solvent=water) geom=allcheck guess
 =read
 ----------------------------------------------------------------------

 Structure from the checkpoint file:  "SM46_m1.a.1.pdb.xyz.mst.a.w.chk"
 -------------------
 SM46_m1.a.1.pdb.xyz
 -------------------
 Charge = -1 Multiplicity = 1

 SCF Done:  E(RB3LYP) =  -1210.71691392     A.U. after    7 cycles
 Normal termination of Gaussian 16 at Thu Sep 24 17:34:22 2020.

 -----------------------------
 #p B3LYP/6-31G* geom=allcheck
 -----------------------------

 Structure from the checkpoint file:  "SM46_m1.a.1.pdb.xyz.mst.a.w.chk"
 -------------------
 SM46_m1.a.1.pdb.xyz
 -------------------
 Charge = -1 Multiplicity = 1

 SCF Done:  E(RB3LYP) =  -1210.61835252     A.U. after   15 cycles
 Normal termination of Gaussian 16 at Thu Sep 24 17:34:59 2020.
 Gaussian 16:  ES64L-G16RevB.01 20-Dec-2017

 ----------------------------------------------------------------------
 #p mp2/aug-cc-pVDZ scf=(MaxCycle=2000,NoVarAcc,NoIncFock) maxdisk=120G
 B geom=allcheck
 ----------------------------------------------------------------------

 Structure from the checkpoint file:  "SM46_m1.a.1.pdb.xyz.mst.a.w.chk"
 -------------------
 SM46_m1.a.1.pdb.xyz
 -------------------
 Charge = -1 Multiplicity = 1

                         Standard orientation:
 ---------------------------------------------------------------------
 Center     Atomic      Atomic             Coordinates (Angstroms)
 Number     Number       Type             X           Y           Z
 ---------------------------------------------------------------------
      1          8           0       -2.187478    1.109625   -1.450630
      2         16           0       -2.787436    0.045890   -0.602073
      3          7           0       -1.951808   -1.304467   -0.506362
      4          6           0       -0.583016   -1.201789   -0.324935
      5          7           0        0.130838   -2.347738   -0.059859
      6          7           0        1.404109   -2.055410    0.068646
      7          6           0        0.324313   -0.149477   -0.358502
      8          7           0        1.535876   -0.724649   -0.102224
      9          6           0        2.812033   -0.103856   -0.021587
     10          6           0        3.013238    1.148443   -0.608700
     11          6           0        4.265677    1.754468   -0.517750
     12          6           0        5.315620    1.114021    0.142376
     13          6           0        5.105135   -0.140772    0.719783
     14          6           0        3.855152   -0.752785    0.647729
     15          7           0       -2.746181    0.733820    0.978125
     16          6           0       -3.255645    2.109511    1.030365
     17          6           0       -3.363902   -0.121221    1.998443
     18          8           0       -4.185999   -0.317222   -0.942394
     19          1           0        0.193984    0.903606   -0.524984
     20          1           0        2.205573    1.638343   -1.139241
     21          1           0        4.418762    2.726555   -0.973328
     22          1           0        6.288916    1.588153    0.207197
     23          1           0        5.913773   -0.644714    1.238409
     24          1           0        3.676952   -1.718646    1.101985
     25          1           0       -2.755296    2.708407    0.271573
     26          1           0       -3.025171    2.517609    2.017948
     27          1           0       -4.343454    2.164788    0.877051
     28          1           0       -2.957170   -1.129547    1.923439
     29          1           0       -4.458218   -0.166009    1.905090
     30          1           0       -3.113337    0.287834    2.980613
 ---------------------------------------------------------------------

 SCF Done:  E(RHF) =  -1205.15362479     A.U. after   17 cycles
 E2 =    -0.2826201003D+01 EUMP2 =    -0.12079798257971D+04

 The electronic state is 1-A.
 Alpha  occ. eigenvalues --  -92.06193 -20.38838 -20.38330 -15.54849 -15.52159
 Alpha  occ. eigenvalues --  -15.47051 -15.45894 -15.38435 -11.21344 -11.17333
 Alpha  occ. eigenvalues --  -11.17263 -11.16630 -11.16549 -11.16461 -11.16252
 Alpha  occ. eigenvalues --  -11.14466 -11.14089 -11.13856  -9.02659  -6.71221
 Alpha  occ. eigenvalues --   -6.71157  -6.71119  -1.31331  -1.28696  -1.15720
 Alpha  occ. eigenvalues --   -1.12290  -1.09681  -1.06424  -1.04127  -0.94962
 Alpha  occ. eigenvalues --   -0.93799  -0.91785  -0.84257  -0.79187  -0.77951
 Alpha  occ. eigenvalues --   -0.76096  -0.70400  -0.68932  -0.64743  -0.62239
 Alpha  occ. eigenvalues --   -0.58906  -0.56642  -0.55424  -0.54271  -0.52607
 Alpha  occ. eigenvalues --   -0.52417  -0.51653  -0.51327  -0.49691  -0.48347
 Alpha  occ. eigenvalues --   -0.46913  -0.44328  -0.44139  -0.43427  -0.43014
 Alpha  occ. eigenvalues --   -0.42584  -0.40091  -0.38767  -0.36002  -0.34166
 Alpha  occ. eigenvalues --   -0.33370  -0.32623  -0.31444  -0.29625  -0.28927
 Alpha  occ. eigenvalues --   -0.26570  -0.25886  -0.25197  -0.23254  -0.15441
 Alpha virt. eigenvalues --    0.08905   0.10055   0.11064   0.11752   0.12916
 Alpha virt. eigenvalues --    0.13649   0.14024   0.14104   0.15771   0.15845
 Alpha virt. eigenvalues --    0.16595   0.17266   0.17798   0.17978   0.18536

 Mulliken charges:
               1
     1  O   -1.261297
     2  S    3.034873
     3  N   -1.181946
     4  C    0.451467
     5  N   -0.698384
     6  N   -0.477868
     7  C    1.156038
     8  N   -0.724844
     9  C    0.671755
    10  C    0.331645
    11  C    0.579866
    12  C    0.673505
    13  C    0.506788
    14  C    0.776933
    15  N   -1.070233
    16  C    0.754817
    17  C    0.725974
    18  O   -1.241918
    19  H   -0.672147
    20  H   -0.633494
    21  H   -0.466348
    22  H   -0.461972
    23  H   -0.456465
    24  H   -0.534332
    25  H   -0.160404
    26  H   -0.179731
    27  H   -0.057876
    28  H   -0.158235
    29  H   -0.044649
    30  H   -0.181520
 Sum of Mulliken charges =  -1.00000

 Dipole moment (field-independent basis, Debye):
    X=              9.4092    Y=              5.7043    Z=              4.8076  Tot=             12.0078
 Quadrupole moment (field-independent basis, Debye-Ang):
   XX=           -156.4940   YY=           -132.7316   ZZ=           -124.5971
   XY=             -1.7746   XZ=            -14.9430   YZ=             -2.1796

 Normal termination of Gaussian 16 at Thu Sep 24 18:01:23 2020.
