 Gaussian 16, Revision B.01,

 ----------------------------------------------------------------------
 #p b3lyp/6-31G(d) opt freq NoSymm scf=(MaxCycle=2000,NoVarAcc,NoIncFoc
 k) scrf=(iefpcm,read,solvent=water)
 ----------------------------------------------------------------------

 -------------------
 SM46_m3.b.1.pdb.xyz
 -------------------
 Symbolic Z-matrix:
 Charge =  2 Multiplicity = 1

 SCF Done:  E(RB3LYP) =  -1212.06270993     A.U. after   13 cycles
 SCF Done:  E(RB3LYP) =  -1212.06261895     A.U. after   10 cycles
 SCF Done:  E(RB3LYP) =  -1212.06260139     A.U. after    9 cycles
 SCF Done:  E(RB3LYP) =  -1212.06270512     A.U. after   10 cycles
 SCF Done:  E(RB3LYP) =  -1212.06271039     A.U. after    8 cycles
 SCF Done:  E(RB3LYP) =  -1212.06263234     A.U. after   10 cycles
 SCF Done:  E(RB3LYP) =  -1212.06261873     A.U. after    9 cycles
 SCF Done:  E(RB3LYP) =  -1212.06270680     A.U. after   10 cycles
 SCF Done:  E(RB3LYP) =  -1212.06271025     A.U. after    8 cycles
 SCF Done:  E(RB3LYP) =  -1212.06257013     A.U. after   10 cycles
 SCF Done:  E(RB3LYP) =  -1212.06258364     A.U. after   10 cycles
 SCF Done:  E(RB3LYP) =  -1212.06260307     A.U. after    8 cycles
 SCF Done:  E(RB3LYP) =  -1212.06260504     A.U. after    8 cycles
 SCF Done:  E(RB3LYP) =  -1212.06260538     A.U. after    8 cycles
 SCF Done:  E(RB3LYP) =  -1212.06260541     A.U. after    7 cycles
 SCF Done:  E(RB3LYP) =  -1212.06260541     A.U. after    6 cycles
 Optimization completed.
    -- Stationary point found.
 Normal termination of Gaussian 16 at Thu Sep 24 18:39:06 2020.

 --------------------------------------------------------------------
 #P Geom=AllCheck Guess=TCheck SCRF=Check GenChk RB3LYP/6-31G(d) Freq
 --------------------------------------------------------------------

 Structure from the checkpoint file:  "SM46_m3.b.1.pdb.xyz.mst.b.w.chk"
 -------------------
 SM46_m3.b.1.pdb.xyz
 -------------------
 Charge =  2 Multiplicity = 1

 SCF Done:  E(RB3LYP) =  -1212.06260541     A.U. after    1 cycles

  Exact polarizability: 284.392  11.985 216.938   1.017 -18.956 123.554
 Approx polarizability: 307.809  15.146 258.727  -1.809 -23.633 148.438

                      1                      2                      3
                      A                      A                      A
 Frequencies --     32.5211                45.9458                62.8264
 Red. masses --      3.8556                 7.0799                 4.5464
 Frc consts  --      0.0024                 0.0088                 0.0106
 IR Inten    --      0.2606                 7.9336                 5.9602

                      4                      5                      6
                      A                      A                      A
 Frequencies --     76.7478               101.4132               109.0153
 Red. masses --      3.6068                 3.9192                 4.3011
 Frc consts  --      0.0125                 0.0237                 0.0301
 IR Inten    --      1.1511                 4.6343                 0.9375

                      7                      8                      9
                      A                      A                      A
 Frequencies --    132.3079               162.3908               190.6963
 Red. masses --      4.3892                 1.3623                 4.9812
 Frc consts  --      0.0453                 0.0212                 0.1067
 IR Inten    --      1.8502                 1.5083                 3.8015

                     10                     11                     12
                      A                      A                      A
 Frequencies --    226.8977               247.5943               255.9420
 Red. masses --      2.8193                 2.8673                 4.3925
 Frc consts  --      0.0855                 0.1036                 0.1695
 IR Inten    --      1.6339                17.0269                 3.6922

                     13                     14                     15
                      A                      A                      A
 Frequencies --    273.2695               290.5620               312.9471
 Red. masses --      1.4520                 3.3319                 3.5569
 Frc consts  --      0.0639                 0.1657                 0.2052
 IR Inten    --     13.3334                13.2715                47.3878

                     16                     17                     18
                      A                      A                      A
 Frequencies --    349.2123               361.8071               395.2550
 Red. masses --      3.0443                 2.2168                 6.3106
 Frc consts  --      0.2187                 0.1710                 0.5809
 IR Inten    --     12.4177               125.9485                 1.5170

                     19                     20                     21
                      A                      A                      A
 Frequencies --    417.3222               417.6138               448.5650
 Red. masses --      5.1434                 3.0814                 3.3188
 Frc consts  --      0.5278                 0.3166                 0.3934
 IR Inten    --      8.3711                 0.8707                27.0439

                     22                     23                     24
                      A                      A                      A
 Frequencies --    465.7682               496.4258               545.2648
 Red. masses --      3.8686                 5.5573                 3.7841
 Frc consts  --      0.4945                 0.8069                 0.6629
 IR Inten    --     14.0767                40.3885                10.6193

                     25                     26                     27
                      A                      A                      A
 Frequencies --    565.3305               596.2685               625.6798
 Red. masses --      6.7939                 5.2518                 6.3877
 Frc consts  --      1.2793                 1.1001                 1.4733
 IR Inten    --    101.3820               197.3045                 0.7572

                     28                     29                     30
                      A                      A                      A
 Frequencies --    664.3113               697.5628               702.6564
 Red. masses --      4.7942                 2.5490                 5.9220
 Frc consts  --      1.2465                 0.7308                 1.7227
 IR Inten    --     53.5684                10.8094                36.3634

                     31                     32                     33
                      A                      A                      A
 Frequencies --    703.3714               745.0377               781.1298
 Red. masses --      4.0074                 1.1795                 1.6445
 Frc consts  --      1.1681                 0.3858                 0.5912
 IR Inten    --     23.9717               144.8843                66.1799

                     34                     35                     36
                      A                      A                      A
 Frequencies --    806.1969               847.1360               857.5878
 Red. masses --      4.4393                 1.3626                 1.3979
 Frc consts  --      1.7000                 0.5761                 0.6057
 IR Inten    --     55.2590                13.9712                34.2444

                     37                     38                     39
                      A                      A                      A
 Frequencies --    865.8043               897.8618               945.6235
 Red. masses --      3.5099                 4.8696                 1.3583
 Frc consts  --      1.5502                 2.3129                 0.7156
 IR Inten    --     65.6709               191.6195                 6.6111

                     40                     41                     42
                      A                      A                      A
 Frequencies --    987.2874               998.0526              1008.8663
 Red. masses --      1.3469                 2.5927                 8.1735
 Frc consts  --      0.7735                 1.5216                 4.9015
 IR Inten    --      0.5673                29.5671                19.0300

                     43                     44                     45
                      A                      A                      A
 Frequencies --   1020.4906              1022.9714              1053.8963
 Red. masses --      1.2967                 6.2733                 2.1765
 Frc consts  --      0.7957                 3.8679                 1.4243
 IR Inten    --      0.2438                 0.6984                 3.6180

                     46                     47                     48
                      A                      A                      A
 Frequencies --   1073.5316              1082.4561              1110.7646
 Red. masses --      1.1628                 2.5017                 1.8614
 Frc consts  --      0.7896                 1.7270                 1.3531
 IR Inten    --     12.5351                94.1274                21.3955

                     49                     50                     51
                      A                      A                      A
 Frequencies --   1116.6246              1148.8241              1150.8357
 Red. masses --      2.2453                 4.9103                 1.6970
 Frc consts  --      1.6494                 3.8182                 1.3242
 IR Inten    --      4.3333               229.8624                15.8848

                     52                     53                     54
                      A                      A                      A
 Frequencies --   1187.4674              1196.0488              1201.4170
 Red. masses --      1.6840                 1.0991                 1.1568
 Frc consts  --      1.3990                 0.9263                 0.9838
 IR Inten    --     74.4219                 0.2791                 2.4195

                     55                     56                     57
                      A                      A                      A
 Frequencies --   1227.0751              1246.9425              1249.3219
 Red. masses --      2.3816                 1.9525                 1.6216
 Frc consts  --      2.1128                 1.7887                 1.4912
 IR Inten    --     31.4798                 9.1631                 0.8128

                     58                     59                     60
                      A                      A                      A
 Frequencies --   1334.4581              1339.9865              1368.7469
 Red. masses --      2.7852                 2.1901                 4.0739
 Frc consts  --      2.9222                 2.3170                 4.4969
 IR Inten    --     24.1580                15.6872                10.5793

                     61                     62                     63
                      A                      A                      A
 Frequencies --   1377.7862              1393.4070              1428.3964
 Red. masses --      2.6272                 3.4912                 1.4080
 Frc consts  --      2.9383                 3.9937                 1.6926
 IR Inten    --    135.0620               134.7327                14.1012

                     64                     65                     66
                      A                      A                      A
 Frequencies --   1439.7305              1450.6790              1466.8660
 Red. masses --      1.3955                 1.8293                 1.2016
 Frc consts  --      1.7043                 2.2682                 1.5233
 IR Inten    --     27.1720                55.0780                15.7288

                     67                     68                     69
                      A                      A                      A
 Frequencies --   1468.7783              1485.0132              1491.3374
 Red. masses --      2.6240                 1.3599                 1.6255
 Frc consts  --      3.3352                 1.7669                 2.1300
 IR Inten    --      5.2239                 9.7454                89.2380

                     70                     71                     72
                      A                      A                      A
 Frequencies --   1497.6094              1510.5901              1514.8721
 Red. masses --      1.1012                 1.0411                 1.0739
 Frc consts  --      1.4552                 1.3997                 1.4520
 IR Inten    --     17.4408                26.4139                41.2590

                     73                     74                     75
                      A                      A                      A
 Frequencies --   1516.3595              1537.3458              1541.5043
 Red. masses --      2.5499                 1.0730                 2.4060
 Frc consts  --      3.4544                 1.4941                 3.3684
 IR Inten    --     57.0380                81.9308                25.4172

                     76                     77                     78
                      A                      A                      A
 Frequencies --   1649.4947              1654.6695              1667.8501
 Red. masses --      5.7203                 5.7583                 5.7915
 Frc consts  --      9.1700                 9.2889                 9.4920
 IR Inten    --     89.9947                48.0731               190.0488

                     79                     80                     81
                      A                      A                      A
 Frequencies --   3126.9452              3131.4428              3221.7488
 Red. masses --      1.0296                 1.0290                 1.0871
 Frc consts  --      5.9314                 5.9452                 6.6479
 IR Inten    --      2.9724                 3.6947                 0.4000

                     82                     83                     84
                      A                      A                      A
 Frequencies --   3223.1175              3231.6131              3232.1254
 Red. masses --      1.1085                 1.1095                 1.0899
 Frc consts  --      6.7847                 6.8266                 6.7085
 IR Inten    --      0.9698                 2.1947                11.9861

                     85                     86                     87
                      A                      A                      A
 Frequencies --   3238.0459              3239.3250              3241.6636
 Red. masses --      1.1109                 1.0934                 1.1100
 Frc consts  --      6.8629                 6.7598                 6.8725
 IR Inten    --      1.5234                25.6813                 0.9984

                     88                     89                     90
                      A                      A                      A
 Frequencies --   3246.8994              3255.1618              3348.9149
 Red. masses --      1.0962                 1.0948                 1.0794
 Frc consts  --      6.8089                 6.8347                 7.1327
 IR Inten    --      7.8017                 1.6275               266.7306

                     91                     92                     93
                      A                      A                      A
 Frequencies --   3355.0707              3474.2025              3488.7496
 Red. masses --      1.1011                 1.0782                 1.0878
 Frc consts  --      7.3030                 7.6678                 7.8011
 IR Inten    --     19.2113               290.8215               744.3081

 - Thermochemistry -
 -------------------
 Temperature   298.150 Kelvin.  Pressure   1.00000 Atm.
 Atom     1 has atomic number  8 and mass  15.99491

 Molecular mass:   269.09465 amu.
 Principal axes and moments of inertia in atomic units:
                           1         2         3
     Eigenvalues --  1984.72226********************
           X            0.99859   0.05256  -0.00736
           Y           -0.05222   0.99781   0.04058
           Z            0.00948  -0.04014   0.99915
 This molecule is an asymmetric top.
 Rotational symmetry number  1.
 Warning -- assumption of classical behavior for rotation
           may cause significant error
 Rotational temperatures (Kelvin)      0.04364     0.00829     0.00756
 Rotational constants (GHZ):           0.90932     0.17272     0.15759
 Zero-point vibrational energy     705756.4 (Joules/Mol)
                                  168.67982 (Kcal/Mol)
 Warning -- explicit consideration of  26 degrees of freedom as
           vibrations may cause significant error
 Vibrational temperatures:     46.79    66.11    90.39   110.42   145.91
          (Kelvin)            156.85   190.36   233.64   274.37   326.46
                              356.23   368.24   393.17   418.05   450.26
                              502.44   520.56   568.68   600.43   600.85
                              645.39   670.14   714.25   784.51   813.38
                              857.90   900.21   955.80  1003.64  1010.97
                             1011.99  1071.94  1123.87  1159.94  1218.84
                             1233.88  1245.70  1291.82  1360.54  1420.49
                             1435.98  1451.53  1468.26  1471.83  1516.32
                             1544.57  1557.41  1598.14  1606.57  1652.90
                             1655.80  1708.50  1720.85  1728.57  1765.49
                             1794.07  1797.50  1919.99  1927.94  1969.32
                             1982.33  2004.80  2055.14  2071.45  2087.20
                             2110.49  2113.24  2136.60  2145.70  2154.73
                             2173.40  2179.56  2181.70  2211.90  2217.88
                             2373.26  2380.70  2399.66  4498.98  4505.45
                             4635.38  4637.35  4649.57  4650.31  4658.83
                             4660.67  4664.03  4671.56  4683.45  4818.34
                             4827.20  4998.60  5019.53

 Zero-point correction=                           0.268808 (Hartree/Particle)
 Thermal correction to Energy=                    0.285655
 Thermal correction to Enthalpy=                  0.286599
 Thermal correction to Gibbs Free Energy=         0.223449
 Sum of electronic and zero-point Energies=          -1211.793797
 Sum of electronic and thermal Energies=             -1211.776951
 Sum of electronic and thermal Enthalpies=           -1211.776007
 Sum of electronic and thermal Free Energies=        -1211.839157

                     E (Thermal)             CV                S
                      KCal/Mol        Cal/Mol-Kelvin    Cal/Mol-Kelvin
 Total                  179.251             64.266            132.910
 Electronic               0.000              0.000              0.000
 Translational            0.889              2.981             42.669
 Rotational               0.889              2.981             33.829
 Vibrational            177.473             58.305             56.413
 Vibration     1          0.594              1.983              5.669
 Vibration     2          0.595              1.979              4.985
 Vibration     3          0.597              1.972              4.366
 Vibration     4          0.599              1.965              3.972
 Vibration     5          0.604              1.948              3.427
 Vibration     6          0.606              1.942              3.286
 Vibration     7          0.612              1.921              2.912
 Vibration     8          0.622              1.889              2.522
 Vibration     9          0.634              1.853              2.221
 Vibration    10          0.651              1.800              1.903
 Vibration    11          0.661              1.767              1.748
 Vibration    12          0.666              1.753              1.689
 Vibration    13          0.676              1.723              1.575
 Vibration    14          0.687              1.691              1.471
 Vibration    15          0.701              1.649              1.347
 Vibration    16          0.726              1.577              1.170
 Vibration    17          0.736              1.551              1.114
 Vibration    18          0.762              1.480              0.980
 Vibration    19          0.780              1.433              0.901
 Vibration    20          0.781              1.432              0.900
 Vibration    21          0.808              1.364              0.800
 Vibration    22          0.823              1.326              0.750
 Vibration    23          0.852              1.258              0.667
 Vibration    24          0.900              1.150              0.554
 Vibration    25          0.921              1.106              0.513
 Vibration    26          0.954              1.040              0.456

                           ! Non-Optimized Parameters !
 Normal termination of Gaussian 16 at Thu Sep 24 18:48:19 2020.

 ----------------------------------------------------------------------
 #p b3lyp/6-31G(d) scrf=(iefpcm,read,solvent=water) geom=allcheck guess
 =read
 ----------------------------------------------------------------------

 Structure from the checkpoint file:  "SM46_m3.b.1.pdb.xyz.mst.b.w.chk"
 -------------------
 SM46_m3.b.1.pdb.xyz
 -------------------
 Charge =  2 Multiplicity = 1

 SCF Done:  E(RB3LYP) =  -1212.06234669     A.U. after    7 cycles
 Normal termination of Gaussian 16 at Thu Sep 24 18:48:54 2020.

 -----------------------------
 #p B3LYP/6-31G* geom=allcheck
 -----------------------------

 Structure from the checkpoint file:  "SM46_m3.b.1.pdb.xyz.mst.b.w.chk"
 -------------------
 SM46_m3.b.1.pdb.xyz
 -------------------
 Charge =  2 Multiplicity = 1

 SCF Done:  E(RB3LYP) =  -1211.75653338     A.U. after   16 cycles
 Normal termination of Gaussian 16 at Thu Sep 24 18:49:36 2020.
 Gaussian 16:  ES64L-G16RevB.01 20-Dec-2017

 ----------------------------------------------------------------------
 #p mp2/aug-cc-pVDZ scf=(MaxCycle=2000,NoVarAcc,NoIncFock) maxdisk=120G
 B geom=allcheck
 ----------------------------------------------------------------------

 Structure from the checkpoint file:  "SM46_m3.b.1.pdb.xyz.mst.b.w.chk"
 -------------------
 SM46_m3.b.1.pdb.xyz
 -------------------
 Charge =  2 Multiplicity = 1

                         Standard orientation:
 ---------------------------------------------------------------------
 Center     Atomic      Atomic             Coordinates (Angstroms)
 Number     Number       Type             X           Y           Z
 ---------------------------------------------------------------------
      1          8           0       -2.211869    0.155357   -1.712920
      2         16           0       -2.840508   -0.323320   -0.500561
      3          7           0       -1.769083   -1.157064    0.442898
      4          6           0       -0.395042   -1.114533    0.242005
      5          7           0        0.346037   -2.206731   -0.081132
      6          7           0        1.626084   -1.944300   -0.175940
      7          6           0        0.509356   -0.083331    0.344762
      8          7           0        1.715946   -0.646415    0.067113
      9          6           0        3.000436   -0.006108    0.035213
     10          6           0        3.085770    1.313260   -0.406228
     11          6           0        4.338131    1.923864   -0.434931
     12          6           0        5.475355    1.217015   -0.039310
     13          6           0        5.365637   -0.106336    0.394181
     14          6           0        4.121245   -0.729841    0.440551
     15          7           0       -3.052799    1.218046    0.509202
     16          6           0       -3.833845    2.228384   -0.282341
     17          6           0       -3.660023    0.929336    1.849194
     18          8           0       -4.127223   -0.982212   -0.432809
     19          1           0       -2.174892   -1.953978    0.942933
     20          1           0        0.375293    0.951140    0.608223
     21          1           0        2.203316    1.845548   -0.739374
     22          1           0        4.422322    2.948154   -0.778629
     23          1           0        6.447114    1.696790   -0.068883
     24          1           0        6.246824   -0.654449    0.706532
     25          1           0        4.014676   -1.748722    0.789761
     26          1           0       -3.329711    2.385090   -1.232093
     27          1           0       -3.846114    3.147463    0.300403
     28          1           0       -4.844715    1.854254   -0.427975
     29          1           0       -3.008275    0.249434    2.392410
     30          1           0       -4.646582    0.497772    1.697520
     31          1           0       -3.733120    1.879157    2.375526
     32          1           0       -2.091802    1.582456    0.645197
     33          1           0        0.021106   -3.167148   -0.230298
 ---------------------------------------------------------------------

 SCF Done:  E(RHF) =  -1206.28203128     A.U. after   18 cycles
 E2 =    -0.2803822291D+01 EUMP2 =    -0.12090858535701D+04

 The electronic state is 1-A.
 Alpha  occ. eigenvalues --  -92.57518 -20.88864 -20.88639 -16.01098 -16.01043
 Alpha  occ. eigenvalues --  -16.00419 -15.99515 -15.96026 -11.66541 -11.61130
 Alpha  occ. eigenvalues --  -11.57381 -11.56547 -11.53368 -11.48348 -11.47661
 Alpha  occ. eigenvalues --  -11.46099 -11.45891 -11.45761  -9.53898  -7.22418
 Alpha  occ. eigenvalues --   -7.22394  -7.22354  -1.80617  -1.79629  -1.67257
 Alpha  occ. eigenvalues --   -1.61227  -1.60414  -1.56595  -1.42560  -1.39160
 Alpha  occ. eigenvalues --   -1.29417  -1.28530  -1.26046  -1.24743  -1.20899
 Alpha  occ. eigenvalues --   -1.19315  -1.16473  -1.12245  -1.08708  -1.06662
 Alpha  occ. eigenvalues --   -1.05451  -1.01957  -1.01797  -1.01280  -0.98774
 Alpha  occ. eigenvalues --   -0.97536  -0.95560  -0.94565  -0.93102  -0.90231
 Alpha  occ. eigenvalues --   -0.89164  -0.86712  -0.85950  -0.85780  -0.85276
 Alpha  occ. eigenvalues --   -0.84194  -0.83385  -0.82684  -0.81417  -0.81272
 Alpha  occ. eigenvalues --   -0.80693  -0.79471  -0.78691  -0.78172  -0.73519
 Alpha  occ. eigenvalues --   -0.72428  -0.71571  -0.67759  -0.56209  -0.55979
 Alpha virt. eigenvalues --   -0.20489  -0.19549  -0.17923  -0.16813  -0.15004
 Alpha virt. eigenvalues --   -0.14320  -0.14160  -0.13324  -0.12755  -0.12216
 Alpha virt. eigenvalues --   -0.11961  -0.11160  -0.11035  -0.10849  -0.09949

 Mulliken charges:
               1
     1  O   -0.993483
     2  S    3.014957
     3  N   -0.939222
     4  C    0.484786
     5  N   -0.366758
     6  N   -0.197894
     7  C    1.437608
     8  N   -0.657151
     9  C    0.955453
    10  C    0.443880
    11  C    0.528757
    12  C    0.612303
    13  C    0.529919
    14  C    0.479638
    15  N   -0.769407
    16  C    0.787123
    17  C    0.813343
    18  O   -0.995835
    19  H   -0.004399
    20  H   -0.554134
    21  H   -0.625433
    22  H   -0.414112
    23  H   -0.401951
    24  H   -0.397280
    25  H   -0.515981
    26  H   -0.085268
    27  H   -0.091473
    28  H   -0.045417
    29  H   -0.166782
    30  H   -0.014358
    31  H   -0.071977
    32  H    0.183472
    33  H    0.037079
 Sum of Mulliken charges =   2.00000

 Dipole moment (field-independent basis, Debye):
    X=             -5.5236    Y=              1.7336    Z=              5.5226  Tot=              8.0009
 Quadrupole moment (field-independent basis, Debye-Ang):
   XX=             -6.2351   YY=            -64.3783   ZZ=           -105.4513
   XY=            -13.9753   XZ=            -13.7624   YZ=             -1.4359

 Normal termination of Gaussian 16 at Thu Sep 24 19:22:45 2020.
