 Gaussian 16, Revision B.01,

 ----------------------------------------------------------------------
 #p b3lyp/6-31G(d) opt freq NoSymm scf=(MaxCycle=2000,NoVarAcc,NoIncFoc
 k) scrf=(iefpcm,read,solvent=water)
 ----------------------------------------------------------------------

 -------------------
 SM46_m3.b.5.pdb.xyz
 -------------------
 Symbolic Z-matrix:
 Charge =  2 Multiplicity = 1

 SCF Done:  E(RB3LYP) =  -1212.06179069     A.U. after   13 cycles
 SCF Done:  E(RB3LYP) =  -1212.06179257     A.U. after    8 cycles
 SCF Done:  E(RB3LYP) =  -1212.06179331     A.U. after    7 cycles
 SCF Done:  E(RB3LYP) =  -1212.06179251     A.U. after    7 cycles
 SCF Done:  E(RB3LYP) =  -1212.06179343     A.U. after    6 cycles
 SCF Done:  E(RB3LYP) =  -1212.06179335     A.U. after    6 cycles
 Optimization completed.
    -- Stationary point found.
 Normal termination of Gaussian 16 at Mon Sep 28 08:27:49 2020.

 --------------------------------------------------------------------
 #P Geom=AllCheck Guess=TCheck SCRF=Check GenChk RB3LYP/6-31G(d) Freq
 --------------------------------------------------------------------

 Structure from the checkpoint file:  "SM46_m3.b.5.pdb.xyz.mst.b.w.chk"
 -------------------
 SM46_m3.b.5.pdb.xyz
 -------------------
 Charge =  2 Multiplicity = 1

 SCF Done:  E(RB3LYP) =  -1212.06179335     A.U. after    1 cycles

  Exact polarizability: 294.552  -5.622 188.311  16.171 -40.814 150.247
 Approx polarizability: 311.724  -2.954 233.850  23.732 -51.033 177.194

                      1                      2                      3
                      A                      A                      A
 Frequencies --     30.0315                46.7878                56.3912
 Red. masses --      4.2645                 5.0580                 5.7400
 Frc consts  --      0.0023                 0.0065                 0.0108
 IR Inten    --      2.2729                 2.7422                10.0652

                      4                      5                      6
                      A                      A                      A
 Frequencies --     80.1454                93.1600               100.2378
 Red. masses --      5.2283                 3.9946                 3.3246
 Frc consts  --      0.0198                 0.0204                 0.0197
 IR Inten    --      2.0820                 0.6698                 3.8889

                      7                      8                      9
                      A                      A                      A
 Frequencies --    137.7484               177.7638               200.0189
 Red. masses --      5.8423                 4.7246                 2.3578
 Frc consts  --      0.0653                 0.0880                 0.0556
 IR Inten    --      6.6551                 4.5444                 8.1120

                     10                     11                     12
                      A                      A                      A
 Frequencies --    240.1875               249.2639               254.6319
 Red. masses --      1.1504                 4.3160                 1.9122
 Frc consts  --      0.0391                 0.1580                 0.0730
 IR Inten    --      2.7590                 9.7929                10.0542

                     13                     14                     15
                      A                      A                      A
 Frequencies --    276.0814               301.0489               307.5057
 Red. masses --      2.7892                 3.3540                 5.7240
 Frc consts  --      0.1253                 0.1791                 0.3189
 IR Inten    --      1.9381                 2.6846                14.1247

                     16                     17                     18
                      A                      A                      A
 Frequencies --    346.9964               350.9445               386.3162
 Red. masses --      2.7663                 1.7051                 4.1926
 Frc consts  --      0.1962                 0.1237                 0.3687
 IR Inten    --     40.4944               173.4670                33.8328

                     19                     20                     21
                      A                      A                      A
 Frequencies --    405.6917               418.5887               443.0012
 Red. masses --      6.9876                 2.9875                 3.0601
 Frc consts  --      0.6776                 0.3084                 0.3538
 IR Inten    --     12.3302                 0.2071                 8.5004

                     22                     23                     24
                      A                      A                      A
 Frequencies --    458.2631               511.2108               537.0957
 Red. masses --      4.9540                 5.6567                 3.9463
 Frc consts  --      0.6130                 0.8710                 0.6707
 IR Inten    --      0.7796                29.7184                 5.2373

                     25                     26                     27
                      A                      A                      A
 Frequencies --    561.4821               596.5178               625.8499
 Red. masses --      4.9901                 6.7820                 6.3813
 Frc consts  --      0.9269                 1.4219                 1.4727
 IR Inten    --     43.4194               288.2765                 0.3169

                     28                     29                     30
                      A                      A                      A
 Frequencies --    661.9734               696.7430               699.4062
 Red. masses --      4.5376                 2.5753                 5.6180
 Frc consts  --      1.1715                 0.7366                 1.6192
 IR Inten    --     43.4281                13.6584                32.9167

                     31                     32                     33
                      A                      A                      A
 Frequencies --    703.1684               748.5186               779.9599
 Red. masses --      4.0227                 1.1549                 1.6664
 Frc consts  --      1.1719                 0.3813                 0.5973
 IR Inten    --     22.1146               151.7837                69.9028

                     34                     35                     36
                      A                      A                      A
 Frequencies --    783.5374               823.7899               851.3186
 Red. masses --      4.2406                 1.6058                 1.2519
 Frc consts  --      1.5339                 0.6421                 0.5346
 IR Inten    --     30.7803                31.8392                 2.5116

                     37                     38                     39
                      A                      A                      A
 Frequencies --    861.8467               903.8848               944.2381
 Red. masses --      3.5340                 5.6916                 1.3638
 Frc consts  --      1.5466                 2.7397                 0.7164
 IR Inten    --     44.8633               220.4950                 6.0438

                     40                     41                     42
                      A                      A                      A
 Frequencies --    987.8451              1000.1013              1009.4866
 Red. masses --      1.3481                 2.5348                 7.9002
 Frc consts  --      0.7751                 1.4938                 4.7434
 IR Inten    --      0.4447                37.1866                14.2490

                     43                     44                     45
                      A                      A                      A
 Frequencies --   1020.0296              1023.2130              1053.4890
 Red. masses --      1.2904                 6.3901                 2.2019
 Frc consts  --      0.7911                 3.9418                 1.4398
 IR Inten    --      0.2048                 1.1829                 4.8124

                     46                     47                     48
                      A                      A                      A
 Frequencies --   1069.1959              1071.1566              1109.9660
 Red. masses --      1.1687                 2.0896                 2.8289
 Frc consts  --      0.7872                 1.4126                 2.0535
 IR Inten    --      2.9595               108.0661                 4.0413

                     49                     50                     51
                      A                      A                      A
 Frequencies --   1114.2999              1148.7741              1150.0690
 Red. masses --      1.6468                 4.4943                 1.8004
 Frc consts  --      1.2047                 3.4945                 1.4030
 IR Inten    --     18.0309               209.8033                62.2358

                     52                     53                     54
                      A                      A                      A
 Frequencies --   1186.2450              1194.2105              1202.9635
 Red. masses --      1.6087                 1.0963                 1.1687
 Frc consts  --      1.3337                 0.9212                 0.9964
 IR Inten    --    113.3968                 0.4103                 3.2353

                     55                     56                     57
                      A                      A                      A
 Frequencies --   1224.1027              1234.7505              1249.6953
 Red. masses --      2.1068                 2.4757                 1.6386
 Frc consts  --      1.8600                 2.2239                 1.5078
 IR Inten    --     47.2146                 0.9781                 1.5468

                     58                     59                     60
                      A                      A                      A
 Frequencies --   1330.3446              1345.0140              1369.0328
 Red. masses --      3.0343                 2.0603                 4.0515
 Frc consts  --      3.1640                 2.1961                 4.4740
 IR Inten    --      9.4783                16.3208                 9.8199

                     61                     62                     63
                      A                      A                      A
 Frequencies --   1380.3138              1394.3838              1428.6935
 Red. masses --      3.1987                 2.4312                 1.5879
 Frc consts  --      3.5907                 2.7851                 1.9096
 IR Inten    --    179.6477                30.9646                76.1172

                     64                     65                     66
                      A                      A                      A
 Frequencies --   1439.9615              1446.0026              1451.2408
 Red. masses --      1.1644                 1.6124                 1.6179
 Frc consts  --      1.4225                 1.9864                 2.0076
 IR Inten    --     53.6593                99.1766                17.6508

                     67                     68                     69
                      A                      A                      A
 Frequencies --   1465.4406              1471.4882              1502.3794
 Red. masses --      2.7972                 1.1632                 1.9906
 Frc consts  --      3.5392                 1.4840                 2.6472
 IR Inten    --     10.8976                 8.7501                57.9559

                     70                     71                     72
                      A                      A                      A
 Frequencies --   1503.9163              1508.2397              1510.3281
 Red. masses --      1.0602                 1.1024                 1.0426
 Frc consts  --      1.4128                 1.4774                 1.4012
 IR Inten    --     17.5032                11.3756                23.6832

                     73                     74                     75
                      A                      A                      A
 Frequencies --   1522.0089              1532.8849              1541.5924
 Red. masses --      2.6605                 1.0451                 2.3834
 Frc consts  --      3.6312                 1.4468                 3.3372
 IR Inten    --    103.7735                72.5158                24.0703

                     76                     77                     78
                      A                      A                      A
 Frequencies --   1649.0415              1654.1378              1665.5431
 Red. masses --      5.6758                 5.7037                 5.8879
 Frc consts  --      9.0937                 9.1950                 9.6232
 IR Inten    --    181.1412                35.3550               183.2761

                     79                     80                     81
                      A                      A                      A
 Frequencies --   3128.5764              3132.2383              3222.1223
 Red. masses --      1.0296                 1.0304                 1.0873
 Frc consts  --      5.9376                 5.9563                 6.6507
 IR Inten    --      3.2659                 2.6979                 1.3013

                     82                     83                     84
                      A                      A                      A
 Frequencies --   3224.1320              3226.5943              3232.7433
 Red. masses --      1.1082                 1.1089                 1.0895
 Frc consts  --      6.7873                 6.8021                 6.7083
 IR Inten    --      1.2033                 1.5705                 9.0759

                     85                     86                     87
                      A                      A                      A
 Frequencies --   3237.4815              3243.4218              3244.9245
 Red. masses --      1.0934                 1.1107                 1.1094
 Frc consts  --      6.7523                 6.8840                 6.8828
 IR Inten    --     26.1102                 2.6228                 0.7225

                     88                     89                     90
                      A                      A                      A
 Frequencies --   3246.5483              3256.5248              3365.6058
 Red. masses --      1.0967                 1.0944                 1.0781
 Frc consts  --      6.8109                 6.8383                 7.1950
 IR Inten    --     12.4517                 1.5384               286.5352

                     91                     92                     93
                      A                      A                      A
 Frequencies --   3369.4905              3490.3146              3499.4083
 Red. masses --      1.1021                 1.0788                 1.0874
 Frc consts  --      7.3722                 7.7434                 7.8454
 IR Inten    --     29.9984               212.9441               833.9271

 - Thermochemistry -
 -------------------
 Temperature   298.150 Kelvin.  Pressure   1.00000 Atm.
 Atom     1 has atomic number  8 and mass  15.99491

 Molecular mass:   269.09465 amu.
 Principal axes and moments of inertia in atomic units:
                           1         2         3
     Eigenvalues --  1807.18172********************
           X            0.99946   0.01530  -0.02916
           Y            0.00722   0.76227   0.64721
           Z            0.03213  -0.64707   0.76175
 This molecule is an asymmetric top.
 Rotational symmetry number  1.
 Warning -- assumption of classical behavior for rotation
           may cause significant error
 Rotational temperatures (Kelvin)      0.04793     0.00806     0.00771
 Rotational constants (GHZ):           0.99865     0.16788     0.16055
 Zero-point vibrational energy     705396.3 (Joules/Mol)
                                  168.59377 (Kcal/Mol)
 Warning -- explicit consideration of  26 degrees of freedom as
           vibrations may cause significant error
 Vibrational temperatures:     43.21    67.32    81.13   115.31   134.04
          (Kelvin)            144.22   198.19   255.76   287.78   345.58
                              358.64   366.36   397.22   433.14   442.43
                              499.25   504.93   555.82   583.70   602.26
                              637.38   659.34   735.52   772.76   807.85
                              858.26   900.46   952.43  1002.46  1006.29
                             1011.70  1076.95  1122.19  1127.34  1185.25
                             1224.86  1240.01  1300.49  1358.55  1421.29
                             1438.92  1452.43  1467.60  1472.18  1515.74
                             1538.33  1541.16  1596.99  1603.23  1652.83
                             1654.69  1706.74  1718.20  1730.80  1761.21
                             1776.53  1798.03  1914.07  1935.18  1969.73
                             1985.96  2006.21  2055.57  2071.78  2080.48
                             2088.01  2108.44  2117.14  2161.59  2163.80
                             2170.02  2173.03  2189.83  2205.48  2218.01
                             2372.60  2379.94  2396.35  4501.32  4506.59
                             4635.92  4638.81  4642.35  4651.20  4658.01
                             4666.56  4668.72  4671.06  4685.41  4842.36
                             4847.95  5021.78  5034.87

 Zero-point correction=                           0.268671 (Hartree/Particle)
 Thermal correction to Energy=                    0.285540
 Thermal correction to Enthalpy=                  0.286484
 Thermal correction to Gibbs Free Energy=         0.223231
 Sum of electronic and zero-point Energies=          -1211.793122
 Sum of electronic and thermal Energies=             -1211.776254
 Sum of electronic and thermal Enthalpies=           -1211.775309
 Sum of electronic and thermal Free Energies=        -1211.838562

                     E (Thermal)             CV                S
                      KCal/Mol        Cal/Mol-Kelvin    Cal/Mol-Kelvin
 Total                  179.179             64.420            133.127
 Electronic               0.000              0.000              0.000
 Translational            0.889              2.981             42.669
 Rotational               0.889              2.981             33.745
 Vibrational            177.401             58.458             56.713
 Vibration     1          0.594              1.984              5.827
 Vibration     2          0.595              1.979              4.949
 Vibration     3          0.596              1.975              4.580
 Vibration     4          0.600              1.963              3.887
 Vibration     5          0.602              1.954              3.593
 Vibration     6          0.604              1.949              3.450
 Vibration     7          0.614              1.916              2.835
 Vibration     8          0.628              1.870              2.352
 Vibration     9          0.638              1.840              2.133
 Vibration    10          0.657              1.779              1.801
 Vibration    11          0.662              1.764              1.736
 Vibration    12          0.665              1.755              1.698
 Vibration    13          0.678              1.718              1.558
 Vibration    14          0.693              1.672              1.411
 Vibration    15          0.697              1.659              1.376
 Vibration    16          0.725              1.581              1.180
 Vibration    17          0.728              1.573              1.162
 Vibration    18          0.755              1.499              1.014
 Vibration    19          0.771              1.458              0.942
 Vibration    20          0.781              1.430              0.897
 Vibration    21          0.803              1.376              0.817
 Vibration    22          0.816              1.343              0.771
 Vibration    23          0.866              1.225              0.631
 Vibration    24          0.892              1.168              0.572
 Vibration    25          0.917              1.115              0.521
 Vibration    26          0.954              1.039              0.456

 Optimization completed.
    -- Stationary point found.
 Normal termination of Gaussian 16 at Mon Sep 28 08:36:25 2020.

 ----------------------------------------------------------------------
 #p b3lyp/6-31G(d) scrf=(iefpcm,read,solvent=water) geom=allcheck guess
 =read
 ----------------------------------------------------------------------

 Structure from the checkpoint file:  "SM46_m3.b.5.pdb.xyz.mst.b.w.chk"
 -------------------
 SM46_m3.b.5.pdb.xyz
 -------------------
 Charge =  2 Multiplicity = 1

 SCF Done:  E(RB3LYP) =  -1212.06162022     A.U. after    7 cycles
 Normal termination of Gaussian 16 at Mon Sep 28 08:36:58 2020.

 -----------------------------
 #p B3LYP/6-31G* geom=allcheck
 -----------------------------

 Structure from the checkpoint file:  "SM46_m3.b.5.pdb.xyz.mst.b.w.chk"
 -------------------
 SM46_m3.b.5.pdb.xyz
 -------------------
 Charge =  2 Multiplicity = 1

 SCF Done:  E(RB3LYP) =  -1211.75766334     A.U. after   16 cycles
 Normal termination of Gaussian 16 at Mon Sep 28 08:37:38 2020.
 Gaussian 16:  ES64L-G16RevB.01 20-Dec-2017

 ----------------------------------------------------------------------
 #p mp2/aug-cc-pVDZ scf=(MaxCycle=2000,NoVarAcc,NoIncFock) maxdisk=120G
 B geom=allcheck
 ----------------------------------------------------------------------

 Structure from the checkpoint file:  "SM46_m3.b.5.pdb.xyz.mst.b.w.chk"
 -------------------
 SM46_m3.b.5.pdb.xyz
 -------------------
 Charge =  2 Multiplicity = 1

                         Standard orientation:
 ---------------------------------------------------------------------
 Center     Atomic      Atomic             Coordinates (Angstroms)
 Number     Number       Type             X           Y           Z
 ---------------------------------------------------------------------
      1          8           0       -3.835885    0.262714   -1.649921
      2         16           0       -2.764391   -0.103682   -0.751014
      3          7           0       -1.743846    1.178559   -0.601424
      4          6           0       -0.403370    1.080980   -0.252256
      5          7           0        0.213320    1.992965    0.541487
      6          7           0        1.489818    1.736058    0.717772
      7          6           0        0.575922    0.173573   -0.589954
      8          7           0        1.695960    0.621874    0.039474
      9          6           0        3.005132    0.033024    0.014093
     10          6           0        3.118529   -1.354727   -0.054874
     11          6           0        4.393445   -1.916507   -0.079549
     12          6           0        5.524416   -1.099633   -0.027738
     13          6           0        5.386011    0.288475    0.044915
     14          6           0        4.120222    0.868956    0.061889
     15          7           0       -3.626142   -0.218648    0.905362
     16          6           0       -4.784329   -1.168685    0.782495
     17          6           0       -2.687398   -0.598397    2.006386
     18          8           0       -1.985302   -1.321158   -0.832985
     19          1           0       -2.176500    2.105407   -0.665304
     20          1           0        0.552815   -0.699286   -1.215911
     21          1           0        2.237518   -1.984818   -0.069576
     22          1           0        4.498219   -2.994015   -0.128671
     23          1           0        6.513016   -1.544102   -0.044328
     24          1           0        6.262979    0.924309    0.078465
     25          1           0        3.994892    1.943120    0.101198
     26          1           0       -5.432566   -0.825418   -0.018923
     27          1           0       -5.310320   -1.149634    1.734947
     28          1           0       -4.398032   -2.165436    0.580219
     29          1           0       -1.946892    0.186155    2.137526
     30          1           0       -2.219591   -1.547206    1.755733
     31          1           0       -3.281962   -0.694337    2.913125
     32          1           0       -3.994437    0.732865    1.083311
     33          1           0       -0.194628    2.820845    0.986533
 ---------------------------------------------------------------------

 SCF Done:  E(RHF) =  -1206.28238064     A.U. after   18 cycles
 E2 =    -0.2804929657D+01 EUMP2 =    -0.12090873103014D+04

 The electronic state is 1-A.
 Alpha  occ. eigenvalues --  -92.57884 -20.89236 -20.88568 -16.01235 -16.00631
 Alpha  occ. eigenvalues --  -16.00261 -15.98797 -15.96540 -11.66465 -11.59846
 Alpha  occ. eigenvalues --  -11.58171 -11.56492 -11.52880 -11.47819 -11.47240
 Alpha  occ. eigenvalues --  -11.45600 -11.45455 -11.45324  -9.54227  -7.22754
 Alpha  occ. eigenvalues --   -7.22727  -7.22688  -1.80391  -1.79716  -1.67541
 Alpha  occ. eigenvalues --   -1.61272  -1.60509  -1.56362  -1.42182  -1.38726
 Alpha  occ. eigenvalues --   -1.29060  -1.28839  -1.26014  -1.24334  -1.20680
 Alpha  occ. eigenvalues --   -1.19306  -1.16221  -1.12088  -1.08917  -1.06184
 Alpha  occ. eigenvalues --   -1.05030  -1.02203  -1.01628  -1.01164  -0.98699
 Alpha  occ. eigenvalues --   -0.96933  -0.95446  -0.93675  -0.93400  -0.89910
 Alpha  occ. eigenvalues --   -0.89651  -0.87200  -0.86199  -0.85532  -0.84836
 Alpha  occ. eigenvalues --   -0.84292  -0.83649  -0.82504  -0.81814  -0.81015
 Alpha  occ. eigenvalues --   -0.80644  -0.79644  -0.78734  -0.78168  -0.73081
 Alpha  occ. eigenvalues --   -0.71933  -0.71110  -0.66413  -0.55766  -0.55510
 Alpha virt. eigenvalues --   -0.20482  -0.20170  -0.17163  -0.16481  -0.16279
 Alpha virt. eigenvalues --   -0.15198  -0.13208  -0.13142  -0.12721  -0.12137
 Alpha virt. eigenvalues --   -0.11686  -0.11018  -0.10533  -0.10083  -0.09827

 Mulliken charges:
               1
     1  O   -0.960796
     2  S    2.917093
     3  N   -0.927945
     4  C    0.994388
     5  N   -0.408308
     6  N   -0.219258
     7  C    1.105681
     8  N   -0.612072
     9  C    1.051663
    10  C    0.265894
    11  C    0.601416
    12  C    0.582296
    13  C    0.576013
    14  C    0.417082
    15  N   -0.677206
    16  C    0.764411
    17  C    0.848810
    18  O   -1.010569
    19  H   -0.059373
    20  H   -0.494633
    21  H   -0.641304
    22  H   -0.408398
    23  H   -0.404271
    24  H   -0.398063
    25  H   -0.525122
    26  H   -0.068579
    27  H   -0.085703
    28  H   -0.029391
    29  H   -0.200969
    30  H   -0.043224
    31  H   -0.110967
    32  H    0.158394
    33  H    0.003009
 Sum of Mulliken charges =   2.00000

 Dipole moment (field-independent basis, Debye):
    X=             -8.3368    Y=              3.5185    Z=              5.9932  Tot=             10.8536
 Quadrupole moment (field-independent basis, Debye-Ang):
   XX=             13.4258   YY=            -77.7132   ZZ=           -101.7135
   XY=             -4.0747   XZ=            -24.8643   YZ=              0.1183

 Normal termination of Gaussian 16 at Mon Sep 28 09:16:02 2020.
