 Gaussian 16, Revision B.01,

 ----------------------------------------------------------------------
 #p b3lyp/6-31G(d) opt freq NoSymm scf=(MaxCycle=2000,NoVarAcc,NoIncFoc
 k) scrf=(iefpcm,read,solvent=water) MaxDisk=20GB
 ----------------------------------------------------------------------

 -------------------
 SM46_m0.n.4.pdb.xyz
 -------------------
 Symbolic Z-matrix:
 Charge =  0 Multiplicity = 1

 SCF Done:  E(RB3LYP) =  -1211.18978128     A.U. after   13 cycles
 SCF Done:  E(RB3LYP) =  -1211.18982433     A.U. after    9 cycles
 SCF Done:  E(RB3LYP) =  -1211.18982001     A.U. after    9 cycles
 SCF Done:  E(RB3LYP) =  -1211.18980873     A.U. after    9 cycles
 SCF Done:  E(RB3LYP) =  -1211.18982354     A.U. after    9 cycles
 SCF Done:  E(RB3LYP) =  -1211.18980353     A.U. after    9 cycles
 SCF Done:  E(RB3LYP) =  -1211.18979431     A.U. after    8 cycles
 SCF Done:  E(RB3LYP) =  -1211.18978864     A.U. after    8 cycles
 SCF Done:  E(RB3LYP) =  -1211.18978279     A.U. after    8 cycles
 SCF Done:  E(RB3LYP) =  -1211.18978050     A.U. after    7 cycles
 SCF Done:  E(RB3LYP) =  -1211.18977937     A.U. after    7 cycles
 Optimization completed.
    -- Stationary point found.
 Normal termination of Gaussian 16 at Mon Sep 14 02:17:18 2020.

 --------------------------------------------------------------------
 #P Geom=AllCheck Guess=TCheck SCRF=Check GenChk RB3LYP/6-31G(d) Freq
 --------------------------------------------------------------------

 Structure from the checkpoint file:  "SM46_m0.n.4.pdb.xyz.mst.n.w.chk"
 -------------------
 SM46_m0.n.4.pdb.xyz
 -------------------
 Charge =  0 Multiplicity = 1

 SCF Done:  E(RB3LYP) =  -1211.18977937     A.U. after    1 cycles

  Exact polarizability: 287.762  -2.146 213.434  38.301 -11.606 135.634
 Approx polarizability: 307.444  -0.253 259.967  48.042 -19.627 161.511

                      1                      2                      3
                      A                      A                      A
 Frequencies --     26.2632                32.9520                43.5427
 Red. masses --      4.4275                 4.6116                 5.1370
 Frc consts  --      0.0018                 0.0030                 0.0057
 IR Inten    --     10.6325                 4.4447                 9.4880

                      4                      5                      6
                      A                      A                      A
 Frequencies --     58.8021                80.1366                95.7361
 Red. masses --      5.4085                 3.4528                 4.6667
 Frc consts  --      0.0110                 0.0131                 0.0252
 IR Inten    --      8.4379                 0.4382                 0.5272

                      7                      8                      9
                      A                      A                      A
 Frequencies --    132.2717               152.6550               196.3162
 Red. masses --      4.8334                 2.2869                 1.4136
 Frc consts  --      0.0498                 0.0314                 0.0321
 IR Inten    --      8.9584                 0.6740                 0.8678

                     10                     11                     12
                      A                      A                      A
 Frequencies --    227.1693               248.6597               264.8863
 Red. masses --      1.1603                 4.6103                 6.8219
 Frc consts  --      0.0353                 0.1680                 0.2820
 IR Inten    --      0.5000                 2.6512                 2.5081

                     13                     14                     15
                      A                      A                      A
 Frequencies --    279.4079               314.6302               344.4264
 Red. masses --      3.7944                 5.0570                 6.2817
 Frc consts  --      0.1745                 0.2949                 0.4391
 IR Inten    --      3.2889                11.4421                 2.0093

                     16                     17                     18
                      A                      A                      A
 Frequencies --    360.8481               380.2005               391.6885
 Red. masses --      3.1355                 5.7640                 5.0137
 Frc consts  --      0.2405                 0.4909                 0.4532
 IR Inten    --      6.4047                17.2312                28.3998

                     19                     20                     21
                      A                      A                      A
 Frequencies --    419.1599               467.6628               478.0286
 Red. masses --      3.0188                 5.4258                 5.3138
 Frc consts  --      0.3125                 0.6992                 0.7154
 IR Inten    --      0.0933                14.4127                43.5322

                     22                     23                     24
                      A                      A                      A
 Frequencies --    493.2663               525.9710               538.3023
 Red. masses --      3.0224                 5.2733                 3.7077
 Frc consts  --      0.4333                 0.8595                 0.6330
 IR Inten    --     14.1052                24.6245                59.3500

                     25                     26                     27
                      A                      A                      A
 Frequencies --    567.3122               628.0825               666.6680
 Red. masses --      4.4153                 6.4164                 3.3624
 Frc consts  --      0.8372                 1.4913                 0.8805
 IR Inten    --    245.2948                 0.2776                 0.3246

                     28                     29                     30
                      A                      A                      A
 Frequencies --    680.3347               694.8072               705.8345
 Red. masses --      6.4027                 6.2659                 2.3483
 Frc consts  --      1.7461                 1.7822                 0.6893
 IR Inten    --    356.9146                20.8319                30.5062

                     31                     32                     33
                      A                      A                      A
 Frequencies --    713.9584               778.7093               795.1297
 Red. masses --      7.1367                 1.5850                 1.5862
 Frc consts  --      2.1434                 0.5663                 0.5909
 IR Inten    --     16.2754                81.9465                28.5443

                     34                     35                     36
                      A                      A                      A
 Frequencies --    814.2721               855.4729               864.8568
 Red. masses --      4.1316                 1.2505                 3.1520
 Frc consts  --      1.6140                 0.5392                 1.3891
 IR Inten    --      1.5479                 0.2412               115.9378

                     37                     38                     39
                      A                      A                      A
 Frequencies --    937.8249               946.6023               983.8722
 Red. masses --      1.3883                 3.1351                 1.3445
 Frc consts  --      0.7194                 1.6552                 0.7668
 IR Inten    --      6.1791               154.1154                 0.3466

                     40                     41                     42
                      A                      A                      A
 Frequencies --   1006.8615              1011.6590              1020.5394
 Red. masses --      7.5522                 1.2719                 6.0730
 Frc consts  --      4.5109                 0.7670                 3.7266
 IR Inten    --     30.9042                 0.3520                 0.8172

                     43                     44                     45
                      A                      A                      A
 Frequencies --   1050.0867              1061.2649              1066.6652
 Red. masses --      2.8871                 2.3611                 3.6142
 Frc consts  --      1.8757                 1.5668                 2.4228
 IR Inten    --      0.6135               135.6811                 2.8133

                     46                     47                     48
                      A                      A                      A
 Frequencies --   1069.4826              1108.7748              1115.1728
 Red. masses --      1.5404                 1.5851                13.2760
 Frc consts  --      1.0381                 1.1482                 9.7275
 IR Inten    --     19.5532                30.1804               353.4924

                     49                     50                     51
                      A                      A                      A
 Frequencies --   1126.1042              1167.8483              1188.4917
 Red. masses --      1.2179                 1.3674                 1.1270
 Frc consts  --      0.9099                 1.0988                 0.9379
 IR Inten    --      2.9711                 1.2382                 0.0604

                     52                     53                     54
                      A                      A                      A
 Frequencies --   1200.3527              1222.2091              1225.4916
 Red. masses --      1.2066                 3.8481                 3.7268
 Frc consts  --      1.0243                 3.3868                 3.2977
 IR Inten    --      0.6568                29.8725                 0.6575

                     55                     56                     57
                      A                      A                      A
 Frequencies --   1245.9400              1282.8016              1285.4924
 Red. masses --      2.0177                 1.9657                 5.7275
 Frc consts  --      1.8454                 1.9059                 5.5764
 IR Inten    --      6.7508                30.4693               204.9282

                     58                     59                     60
                      A                      A                      A
 Frequencies --   1305.3318              1334.3751              1365.3539
 Red. masses --      5.4952                 4.1894                 1.8236
 Frc consts  --      5.5166                 4.3950                 2.0030
 IR Inten    --     95.0421               157.4172                 3.4176

                     61                     62                     63
                      A                      A                      A
 Frequencies --   1367.1237              1442.0482              1452.8210
 Red. masses --      3.9619                 2.4132                 1.1894
 Frc consts  --      4.3628                 2.9567                 1.4791
 IR Inten    --      4.4210               243.5230                18.3990

                     64                     65                     66
                      A                      A                      A
 Frequencies --   1468.3531              1484.0955              1503.5248
 Red. masses --      1.1684                 2.3864                 1.0457
 Frc consts  --      1.4842                 3.0968                 1.3928
 IR Inten    --      2.6947                27.3028                 5.8711

                     67                     68                     69
                      A                      A                      A
 Frequencies --   1512.7969              1514.7285              1517.7640
 Red. masses --      1.0736                 2.4301                 1.0547
 Frc consts  --      1.4476                 3.2851                 1.4315
 IR Inten    --     37.2010                27.0773                17.5751

                     70                     71                     72
                      A                      A                      A
 Frequencies --   1531.0474              1550.2318              1606.6808
 Red. masses --      1.0492                 2.7507                 6.3850
 Frc consts  --      1.4490                 3.8948                 9.7112
 IR Inten    --     15.6909               100.1220                85.2728

                     73                     74                     75
                      A                      A                      A
 Frequencies --   1655.3991              1658.4761              3054.5108
 Red. masses --      6.4229                 5.7163                 1.0453
 Frc consts  --     10.3703                 9.2637                 5.7463
 IR Inten    --      9.1662                23.7822                56.2636

                     76                     77                     78
                      A                      A                      A
 Frequencies --   3066.6190              3139.9859              3142.7774
 Red. masses --      1.0408                 1.0967                 1.0965
 Frc consts  --      5.7667                 6.3707                 6.3811
 IR Inten    --     55.3529                59.0230                 1.9957

                     79                     80                     81
                      A                      A                      A
 Frequencies --   3196.7748              3203.9010              3213.8691
 Red. masses --      1.1023                 1.1011                 1.0863
 Frc consts  --      6.6371                 6.6594                 6.6110
 IR Inten    --      7.1975                 6.4816                 0.0672

                     82                     83                     84
                      A                      A                      A
 Frequencies --   3222.5486              3231.9490              3241.5073
 Red. masses --      1.0900                 1.0940                 1.0952
 Frc consts  --      6.6691                 6.7331                 6.7801
 IR Inten    --     18.6072                42.4382                10.6927

                     85                     86                     87
                      A                      A                      A
 Frequencies --   3253.7939              3352.2171              3495.5411
 Red. masses --      1.0935                 1.1001                 1.0755
 Frc consts  --      6.8210                 7.2837                 7.7430
 IR Inten    --      2.2206                 9.6203               148.5633

 - Thermochemistry -
 -------------------
 Temperature   298.150 Kelvin.  Pressure   1.00000 Atm.
 Atom     1 has atomic number  8 and mass  15.99491

 Molecular mass:   267.07900 amu.
 Principal axes and moments of inertia in atomic units:
                           1         2         3
     Eigenvalues --  1791.81049********************
           X            0.99983  -0.01847  -0.00220
           Y            0.01860   0.99268   0.11935
           Z           -0.00002  -0.11937   0.99285
 This molecule is an asymmetric top.
 Rotational symmetry number  1.
 Warning -- assumption of classical behavior for rotation
           may cause significant error
 Rotational temperatures (Kelvin)      0.04834     0.00852     0.00820
 Rotational constants (GHZ):           1.00722     0.17745     0.17096
 Zero-point vibrational energy     632394.5 (Joules/Mol)
                                  151.14592 (Kcal/Mol)
 Warning -- explicit consideration of  25 degrees of freedom as
           vibrations may cause significant error
 Vibrational temperatures:     37.79    47.41    62.65    84.60   115.30
          (Kelvin)            137.74   190.31   219.64   282.46   326.85
                              357.77   381.11   402.01   452.68   495.55
                              519.18   547.02   563.55   603.08   672.86
                              687.78   709.70   756.75   774.50   816.24
                              903.67   959.19   978.85   999.67  1015.54
                             1027.23  1120.39  1144.01  1171.56  1230.83
                             1244.34  1349.32  1361.95  1415.57  1448.65
                             1455.55  1468.33  1510.84  1526.92  1534.69
                             1538.75  1595.28  1604.48  1620.21  1680.27
                             1709.97  1727.04  1758.49  1763.21  1792.63
                             1845.67  1849.54  1878.08  1919.87  1964.44
                             1966.99  2074.79  2090.29  2112.63  2135.28
                             2163.24  2176.58  2179.36  2183.72  2202.84
                             2230.44  2311.66  2381.75  2386.18  4394.76
                             4412.18  4517.74  4521.76  4599.45  4609.70
                             4624.04  4636.53  4650.05  4663.81  4681.48
                             4823.09  5029.30

 Zero-point correction=                           0.240866 (Hartree/Particle)
 Thermal correction to Energy=                    0.257524
 Thermal correction to Enthalpy=                  0.258468
 Thermal correction to Gibbs Free Energy=         0.194577
 Sum of electronic and zero-point Energies=          -1210.948913
 Sum of electronic and thermal Energies=             -1210.932255
 Sum of electronic and thermal Enthalpies=           -1210.931311
 Sum of electronic and thermal Free Energies=        -1210.995202

                     E (Thermal)             CV                S
                      KCal/Mol        Cal/Mol-Kelvin    Cal/Mol-Kelvin
 Total                  161.599             62.673            134.471
 Electronic               0.000              0.000              0.000
 Translational            0.889              2.981             42.646
 Rotational               0.889              2.981             33.619
 Vibrational            159.821             56.711             58.205
 Vibration     1          0.593              1.985              6.093
 Vibration     2          0.594              1.983              5.643
 Vibration     3          0.595              1.980              5.091
 Vibration     4          0.596              1.974              4.497
 Vibration     5          0.600              1.963              3.888
 Vibration     6          0.603              1.952              3.539
 Vibration     7          0.612              1.921              2.913
 Vibration     8          0.619              1.900              2.639
 Vibration     9          0.636              1.845              2.167
 Vibration    10          0.651              1.800              1.901
 Vibration    11          0.662              1.765              1.740
 Vibration    12          0.671              1.737              1.629
 Vibration    13          0.680              1.712              1.537
 Vibration    14          0.702              1.646              1.338
 Vibration    15          0.723              1.587              1.192
 Vibration    16          0.735              1.553              1.118
 Vibration    17          0.750              1.512              1.038
 Vibration    18          0.759              1.488              0.994
 Vibration    19          0.782              1.429              0.895
 Vibration    20          0.825              1.322              0.744
 Vibration    21          0.835              1.299              0.715
 Vibration    22          0.849              1.265              0.675
 Vibration    23          0.881              1.193              0.596
 Vibration    24          0.893              1.165              0.569
 Vibration    25          0.923              1.102              0.509

                           ! Non-Optimized Parameters !
 Normal termination of Gaussian 16 at Mon Sep 14 02:26:15 2020.

 ----------------------------------------------------------------------
 #p b3lyp/6-31G(d) scrf=(iefpcm,read,solvent=water) geom=allcheck guess
 =read
 ----------------------------------------------------------------------

 Structure from the checkpoint file:  "SM46_m0.n.4.pdb.xyz.mst.n.w.chk"
 -------------------
 SM46_m0.n.4.pdb.xyz
 -------------------
 Charge =  0 Multiplicity = 1

 SCF Done:  E(RB3LYP) =  -1211.18976006     A.U. after    6 cycles
 Normal termination of Gaussian 16 at Mon Sep 14 02:26:52 2020.

 -----------------------------
 #p B3LYP/6-31G* geom=allcheck
 -----------------------------

 Structure from the checkpoint file:  "SM46_m0.n.4.pdb.xyz.mst.n.w.chk"
 -------------------
 SM46_m0.n.4.pdb.xyz
 -------------------
 Charge =  0 Multiplicity = 1

 SCF Done:  E(RB3LYP) =  -1211.16701358     A.U. after   15 cycles
 Normal termination of Gaussian 16 at Mon Sep 14 02:27:33 2020.
 Gaussian 16:  ES64L-G16RevB.01 20-Dec-2017

 ----------------------------------------------------------------------
 #p mp2/aug-cc-pVDZ scf=(MaxCycle=2000,NoVarAcc,NoIncFock) maxdisk=180G
 B geom=allcheck
 ----------------------------------------------------------------------

 Structure from the checkpoint file:  "SM46_m0.n.4.pdb.xyz.mst.n.w.chk"
 -------------------
 SM46_m0.n.4.pdb.xyz
 -------------------
 Charge =  0 Multiplicity = 1

                         Standard orientation:
 ---------------------------------------------------------------------
 Center     Atomic      Atomic             Coordinates (Angstroms)
 Number     Number       Type             X           Y           Z
 ---------------------------------------------------------------------
      1          8           0       -4.147826   -1.264441   -0.461600
      2         16           0       -2.899611   -0.778603    0.127295
      3          7           0       -1.887831   -0.526775   -1.224469
      4          6           0       -0.572125   -0.065377   -1.040007
      5          7           0       -0.163639    1.154026   -1.488151
      6          7           0        1.111309    1.293623   -1.226432
      7          6           0        0.500436   -0.710974   -0.462416
      8          7           0        1.521780    0.174874   -0.586160
      9          6           0        2.874141    0.035520   -0.156503
     10          6           0        3.629294    1.180458    0.107048
     11          6           0        4.952057    1.038748    0.520982
     12          6           0        5.511377   -0.230891    0.682783
     13          6           0        4.742579   -1.366777    0.420764
     14          6           0        3.421964   -1.239769   -0.007054
     15          7           0       -3.267732    0.638401    0.932720
     16          6           0       -2.222986    1.225889    1.786615
     17          6           0       -4.061576    1.620016    0.179704
     18          8           0       -2.124506   -1.602701    1.054987
     19          1           0       -2.390807   -0.011541   -1.950773
     20          1           0        0.599201   -1.666100    0.020899
     21          1           0        3.179486    2.157794   -0.009207
     22          1           0        5.542133    1.925061    0.726588
     23          1           0        6.539807   -0.334116    1.010673
     24          1           0        5.170173   -2.356303    0.538358
     25          1           0        2.830785   -2.119107   -0.232433
     26          1           0       -1.696042    0.432206    2.312146
     27          1           0       -2.723652    1.864478    2.517463
     28          1           0       -1.511316    1.831507    1.215317
     29          1           0       -4.853802    1.108237   -0.363856
     30          1           0       -3.447836    2.202980   -0.517273
     31          1           0       -4.513873    2.299579    0.904208
 ---------------------------------------------------------------------

 SCF Done:  E(RHF) =  -1205.70206274     A.U. after   17 cycles
 E2 =    -0.2809981598D+01 EUMP2 =    -0.12085120443414D+04

 The electronic state is 1-A.
 Alpha  occ. eigenvalues --  -92.24805 -20.56543 -20.56203 -15.69328 -15.66588
 Alpha  occ. eigenvalues --  -15.63165 -15.62673 -15.62108 -11.32168 -11.31810
 Alpha  occ. eigenvalues --  -11.30479 -11.28349 -11.28052 -11.27070 -11.26788
 Alpha  occ. eigenvalues --  -11.26674 -11.26525 -11.26253  -9.21243  -6.89811
 Alpha  occ. eigenvalues --   -6.89731  -6.89717  -1.47520  -1.46216  -1.34814
 Alpha  occ. eigenvalues --   -1.27709  -1.25705  -1.23647  -1.16901  -1.09082
 Alpha  occ. eigenvalues --   -1.04626  -1.04141  -0.98721  -0.95618  -0.90911
 Alpha  occ. eigenvalues --   -0.88176  -0.84572  -0.82472  -0.81087  -0.77122
 Alpha  occ. eigenvalues --   -0.73786  -0.71186  -0.70479  -0.68834  -0.67578
 Alpha  occ. eigenvalues --   -0.66707  -0.65884  -0.64781  -0.63863  -0.62307
 Alpha  occ. eigenvalues --   -0.61440  -0.61149  -0.58704  -0.57455  -0.54835
 Alpha  occ. eigenvalues --   -0.54670  -0.54131  -0.53677  -0.52256  -0.51346
 Alpha  occ. eigenvalues --   -0.51061  -0.50008  -0.48401  -0.47496  -0.46151
 Alpha  occ. eigenvalues --   -0.44626  -0.41643  -0.36385  -0.36035  -0.33361
 Alpha virt. eigenvalues --    0.02772   0.03347   0.03654   0.04392   0.04639
 Alpha virt. eigenvalues --    0.05564   0.05639   0.05969   0.06674   0.07160
 Alpha virt. eigenvalues --    0.07417   0.08109   0.08278   0.08720   0.09232

 Mulliken charges:
               1
     1  O   -1.086202
     2  S    2.932032
     3  N   -0.864822
     4  C    1.169012
     5  N   -0.721214
     6  N   -0.457805
     7  C    0.697432
     8  N   -0.567373
     9  C    0.890928
    10  C    0.595165
    11  C    0.542578
    12  C    0.629672
    13  C    0.759245
    14  C    0.012296
    15  N   -1.204195
    16  C    0.905555
    17  C    0.697201
    18  O   -1.150170
    19  H   -0.038185
    20  H   -0.520120
    21  H   -0.532771
    22  H   -0.431129
    23  H   -0.445245
    24  H   -0.442130
    25  H   -0.665875
    26  H   -0.149265
    27  H   -0.202081
    28  H   -0.055598
    29  H   -0.124874
    30  H   -0.026798
    31  H   -0.145263
 Sum of Mulliken charges =  -0.00000

 Dipole moment (field-independent basis, Debye):
    X=              4.0755    Y=              2.6101    Z=              1.4059  Tot=              5.0397
 Quadrupole moment (field-independent basis, Debye-Ang):
   XX=           -105.7846   YY=           -113.8165   ZZ=           -117.8953
   XY=            -20.6042   XZ=              5.2250   YZ=              6.7435

 Normal termination of Gaussian 16 at Mon Sep 14 03:22:26 2020.
