 Gaussian 16, Revision B.01,

 ----------------------------------------------------------------------
 #p b3lyp/6-31G(d) opt freq NoSymm scf=(MaxCycle=2000,NoVarAcc,NoIncFoc
 k) scrf=(iefpcm,read,solvent=water)
 ----------------------------------------------------------------------

 -------------------
 SM46_m1.a.3.pdb.xyz
 -------------------
 Symbolic Z-matrix:
 Charge = -1 Multiplicity = 1

 SCF Done:  E(RB3LYP) =  -1210.71222081     A.U. after   13 cycles
 SCF Done:  E(RB3LYP) =  -1210.71217350     A.U. after   10 cycles
 SCF Done:  E(RB3LYP) =  -1210.71213640     A.U. after   10 cycles
 SCF Done:  E(RB3LYP) =  -1210.71223361     A.U. after   10 cycles
 SCF Done:  E(RB3LYP) =  -1210.71205929     A.U. after   10 cycles
 SCF Done:  E(RB3LYP) =  -1210.71210320     A.U. after    9 cycles
 SCF Done:  E(RB3LYP) =  -1210.71222586     A.U. after   10 cycles
 SCF Done:  E(RB3LYP) =  -1210.71223345     A.U. after    9 cycles
 SCF Done:  E(RB3LYP) =  -1210.71212359     A.U. after   11 cycles
 SCF Done:  E(RB3LYP) =  -1210.71209007     A.U. after    9 cycles
 SCF Done:  E(RB3LYP) =  -1210.71223323     A.U. after    9 cycles
 SCF Done:  E(RB3LYP) =  -1210.71210519     A.U. after   11 cycles
 SCF Done:  E(RB3LYP) =  -1210.71210035     A.U. after    7 cycles
 SCF Done:  E(RB3LYP) =  -1210.71222483     A.U. after   10 cycles
 SCF Done:  E(RB3LYP) =  -1210.71223321     A.U. after   10 cycles
 SCF Done:  E(RB3LYP) =  -1210.71210052     A.U. after   11 cycles
 Optimization completed.
    -- Stationary point found.
 Normal termination of Gaussian 16 at Thu Sep 24 16:53:38 2020.

 --------------------------------------------------------------------
 #P Geom=AllCheck Guess=TCheck SCRF=Check GenChk RB3LYP/6-31G(d) Freq
 --------------------------------------------------------------------

 Structure from the checkpoint file:  "SM46_m1.a.3.pdb.xyz.mst.a.w.chk"
 -------------------
 SM46_m1.a.3.pdb.xyz
 -------------------
 Charge = -1 Multiplicity = 1

 SCF Done:  E(RB3LYP) =  -1210.71210052     A.U. after    1 cycles

  Exact polarizability: 316.060  19.455 184.815  16.348 -42.800 165.715
 Approx polarizability: 330.945  25.794 224.342  20.788 -61.542 200.300

                      1                      2                      3
                      A                      A                      A
 Frequencies --     25.0662                31.9614                52.8429
 Red. masses --      5.2545                 5.1632                 4.2848
 Frc consts  --      0.0019                 0.0031                 0.0070
 IR Inten    --      2.2400                 3.3251                 1.0656

                      4                      5                      6
                      A                      A                      A
 Frequencies --     72.8521                91.2799                95.3168
 Red. masses --      2.9946                 4.7062                 6.3415
 Frc consts  --      0.0094                 0.0231                 0.0339
 IR Inten    --      3.8433                 5.0738                 0.0258

                      7                      8                      9
                      A                      A                      A
 Frequencies --    160.7822               182.7341               223.5833
 Red. masses --      7.5124                 3.2809                 1.2348
 Frc consts  --      0.1144                 0.0645                 0.0364
 IR Inten    --      5.1149                 2.7812                 0.4234

                     10                     11                     12
                      A                      A                      A
 Frequencies --    232.0049               261.8258               264.4803
 Red. masses --      1.1146                 5.6322                 4.8023
 Frc consts  --      0.0353                 0.2275                 0.1979
 IR Inten    --      0.9386                 6.6357                11.3138

                     13                     14                     15
                      A                      A                      A
 Frequencies --    271.2003               319.9179               343.6483
 Red. masses --      3.8859                 9.1058                 3.0671
 Frc consts  --      0.1684                 0.5491                 0.2134
 IR Inten    --      2.6898                 4.7331                 8.6291

                     16                     17                     18
                      A                      A                      A
 Frequencies --    370.0158               401.8504               419.8210
 Red. masses --      5.5388                 6.9039                 4.8929
 Frc consts  --      0.4468                 0.6569                 0.5081
 IR Inten    --      6.7343                 2.6319                 9.7498

                     19                     20                     21
                      A                      A                      A
 Frequencies --    423.5760               477.6302               478.3138
 Red. masses --      3.7392                 5.5934                 6.2850
 Frc consts  --      0.3953                 0.7518                 0.8472
 IR Inten    --      1.7741                35.7875                 6.2637

                     22                     23                     24
                      A                      A                      A
 Frequencies --    496.4809               535.1343               574.5716
 Red. masses --      4.8755                 3.8288                 8.5871
 Frc consts  --      0.7081                 0.6460                 1.6703
 IR Inten    --     60.9117                43.0522                72.9354

                     25                     26                     27
                      A                      A                      A
 Frequencies --    628.4520               638.3558               662.4595
 Red. masses --      6.4330                 7.9510                 5.0065
 Frc consts  --      1.4969                 1.9090                 1.2945
 IR Inten    --      2.4076               233.8420               106.6845

                     28                     29                     30
                      A                      A                      A
 Frequencies --    689.5780               708.0942               712.4441
 Red. masses --      8.1770                 2.3694                 3.4801
 Frc consts  --      2.2909                 0.6999                 1.0407
 IR Inten    --     33.6798                25.5399                59.3658

                     31                     32                     33
                      A                      A                      A
 Frequencies --    727.3987               770.0253               780.4707
 Red. masses --      2.9335                 2.5713                 1.7297
 Frc consts  --      0.9145                 0.8983                 0.6208
 IR Inten    --     65.0991               115.2742                29.3227

                     34                     35                     36
                      A                      A                      A
 Frequencies --    857.8627               930.8651               935.0547
 Red. masses --      1.2471                 6.3442                 1.3920
 Frc consts  --      0.5407                 3.2389                 0.7171
 IR Inten    --      0.3925               221.0927                 5.7413

                     37                     38                     39
                      A                      A                      A
 Frequencies --    938.7256               983.6041               996.8629
 Red. masses --      4.2768                 1.3396                 7.7498
 Frc consts  --      2.2205                 0.7636                 4.5374
 IR Inten    --     73.3661                 0.1286                56.5195

                     40                     41                     42
                      A                      A                      A
 Frequencies --   1009.8950              1017.9848              1049.9664
 Red. masses --      1.2583                 6.0123                 3.0592
 Frc consts  --      0.7561                 3.6709                 1.9871
 IR Inten    --      0.4450                 1.3266                 7.2994

                     43                     44                     45
                      A                      A                      A
 Frequencies --   1061.2091              1061.4099              1068.3764
 Red. masses --      2.6316                 1.5841                 3.4580
 Frc consts  --      1.7461                 1.0515                 2.3256
 IR Inten    --     15.6969                22.2608               236.9020

                     46                     47                     48
                      A                      A                      A
 Frequencies --   1093.8464              1110.9775              1123.4160
 Red. masses --      5.9989                 1.7002                 1.2206
 Frc consts  --      4.2290                 1.2364                 0.9077
 IR Inten    --    534.7727                38.4214                 6.5208

                     49                     50                     51
                      A                      A                      A
 Frequencies --   1174.8404              1188.4944              1202.3260
 Red. masses --      1.4225                 1.1068                 1.2210
 Frc consts  --      1.1568                 0.9211                 1.0399
 IR Inten    --      6.3997                 0.2502                 1.3521

                     52                     53                     54
                      A                      A                      A
 Frequencies --   1211.8018              1228.4313              1233.0105
 Red. masses --      5.0681                 6.8082                 4.5954
 Frc consts  --      4.3849                 6.0531                 4.1163
 IR Inten    --     25.7437               328.6300               158.8579

                     55                     56                     57
                      A                      A                      A
 Frequencies --   1250.3553              1266.2875              1277.8064
 Red. masses --      4.5553                 1.8959                 2.9586
 Frc consts  --      4.1960                 1.7912                 2.8462
 IR Inten    --     27.5144                20.0910               281.1411

                     58                     59                     60
                      A                      A                      A
 Frequencies --   1333.6948              1366.5034              1375.1126
 Red. masses --      3.7896                 3.0450                 2.7448
 Frc consts  --      3.9715                 3.3501                 3.0580
 IR Inten    --    131.7126                 6.7307               285.5438

                     61                     62                     63
                      A                      A                      A
 Frequencies --   1440.6502              1454.9777              1460.3933
 Red. masses --      1.1525                 3.5238                 1.2580
 Frc consts  --      1.4093                 4.3951                 1.5807
 IR Inten    --      2.8752               181.8620                14.9036

                     64                     65                     66
                      A                      A                      A
 Frequencies --   1501.6408              1511.9566              1512.3703
 Red. masses --      1.0489                 2.4780                 1.0591
 Frc consts  --      1.3935                 3.3375                 1.4273
 IR Inten    --     14.8220                21.2394                24.8186

                     67                     68                     69
                      A                      A                      A
 Frequencies --   1514.9815              1527.6419              1546.5426
 Red. masses --      1.0491                 1.0464                 2.7406
 Frc consts  --      1.4186                 1.4387                 3.8621
 IR Inten    --     12.2539                12.1192               364.6530

                     70                     71                     72
                      A                      A                      A
 Frequencies --   1576.6016              1651.7783              1658.5028
 Red. masses --      5.9452                 6.3026                 5.6496
 Frc consts  --      8.7068                10.1314                 9.1559
 IR Inten    --    252.4159                 7.9284                47.6539

                     73                     74                     75
                      A                      A                      A
 Frequencies --   3017.0259              3023.6426              3109.1896
 Red. masses --      1.0508                 1.0508                 1.0866
 Frc consts  --      5.6353                 5.6601                 6.1886
 IR Inten    --     75.5709                93.9595               106.5707

                     76                     77                     78
                      A                      A                      A
 Frequencies --   3110.3994              3176.1460              3182.4147
 Red. masses --      1.0890                 1.0999                 1.0990
 Frc consts  --      6.2074                 6.5373                 6.5579
 IR Inten    --      8.0550                16.9808                14.2893

                     79                     80                     81
                      A                      A                      A
 Frequencies --   3210.6599              3218.5114              3230.1028
 Red. masses --      1.0861                 1.0901                 1.0943
 Frc consts  --      6.5962                 6.6532                 6.7273
 IR Inten    --      0.7564                22.6983                46.8780

                     82                     83                     84
                      A                      A                      A
 Frequencies --   3240.8747              3253.1198              3330.5562
 Red. masses --      1.0943                 1.0929                 1.0985
 Frc consts  --      6.7720                 6.8146                 7.1795
 IR Inten    --     10.5803                 3.2688                 5.3404

 - Thermochemistry -
 -------------------
 Temperature   298.150 Kelvin.  Pressure   1.00000 Atm.
 Atom     1 has atomic number  8 and mass  15.99491

 Molecular mass:   266.07117 amu.
 Principal axes and moments of inertia in atomic units:
                           1         2         3
     Eigenvalues --  1666.15418********************
           X            0.99997   0.00536   0.00582
           Y           -0.00599   0.99345   0.11410
           Z           -0.00517  -0.11413   0.99345
 This molecule is an asymmetric top.
 Rotational symmetry number  1.
 Warning -- assumption of classical behavior for rotation
           may cause significant error
 Rotational temperatures (Kelvin)      0.05198     0.00797     0.00770
 Rotational constants (GHZ):           1.08318     0.16597     0.16051
 Zero-point vibrational energy     597735.5 (Joules/Mol)
                                  142.86221 (Kcal/Mol)
 Warning -- explicit consideration of  24 degrees of freedom as
           vibrations may cause significant error
 Vibrational temperatures:     36.06    45.99    76.03   104.82   131.33
          (Kelvin)            137.14   231.33   262.91   321.69   333.80
                              376.71   380.53   390.20   460.29   494.43
                              532.37   578.17   604.03   609.43   687.20
                              688.19   714.33   769.94   826.68   904.20
                              918.45   953.13   992.15  1018.79  1025.05
                             1046.56  1107.89  1122.92  1234.27  1339.31
                             1345.34  1350.62  1415.19  1434.26  1453.01
                             1464.65  1510.67  1526.84  1527.13  1537.16
                             1573.80  1598.45  1616.35  1690.33  1709.98
                             1729.88  1743.51  1767.44  1774.03  1798.98
                             1821.91  1838.48  1918.89  1966.09  1978.48
                             2072.77  2093.39  2101.18  2160.53  2175.37
                             2175.96  2179.72  2197.94  2225.13  2268.38
                             2376.54  2386.22  4340.83  4350.35  4473.43
                             4475.17  4569.77  4578.78  4619.42  4630.72
                             4647.40  4662.90  4680.51  4791.93

 Zero-point correction=                           0.227665 (Hartree/Particle)
 Thermal correction to Energy=                    0.243867
 Thermal correction to Enthalpy=                  0.244811
 Thermal correction to Gibbs Free Energy=         0.182169
 Sum of electronic and zero-point Energies=          -1210.484435
 Sum of electronic and thermal Energies=             -1210.468234
 Sum of electronic and thermal Enthalpies=           -1210.467290
 Sum of electronic and thermal Free Energies=        -1210.529932

                     E (Thermal)             CV                S
                      KCal/Mol        Cal/Mol-Kelvin    Cal/Mol-Kelvin
 Total                  153.029             61.386            131.842
 Electronic               0.000              0.000              0.000
 Translational            0.889              2.981             42.635
 Rotational               0.889              2.981             33.676
 Vibrational            151.251             55.424             55.530
 Vibration     1          0.593              1.985              6.186
 Vibration     2          0.594              1.983              5.704
 Vibration     3          0.596              1.976              4.708
 Vibration     4          0.599              1.967              4.075
 Vibration     5          0.602              1.955              3.632
 Vibration     6          0.603              1.953              3.548
 Vibration     7          0.622              1.890              2.541
 Vibration     8          0.630              1.863              2.300
 Vibration     9          0.649              1.805              1.930
 Vibration    10          0.653              1.792              1.863
 Vibration    11          0.669              1.743              1.650
 Vibration    12          0.671              1.738              1.632
 Vibration    13          0.675              1.726              1.589
 Vibration    14          0.706              1.635              1.311
 Vibration    15          0.722              1.588              1.195
 Vibration    16          0.742              1.534              1.080
 Vibration    17          0.767              1.466              0.956
 Vibration    18          0.782              1.427              0.893
 Vibration    19          0.786              1.419              0.880
 Vibration    20          0.834              1.300              0.716
 Vibration    21          0.835              1.298              0.715
 Vibration    22          0.852              1.258              0.667
 Vibration    23          0.890              1.172              0.576
 Vibration    24          0.931              1.086              0.496

 Optimization completed.
    -- Stationary point found.
 Normal termination of Gaussian 16 at Thu Sep 24 17:02:05 2020.

 ----------------------------------------------------------------------
 #p b3lyp/6-31G(d) scrf=(iefpcm,read,solvent=water) geom=allcheck guess
 =read
 ----------------------------------------------------------------------

 Structure from the checkpoint file:  "SM46_m1.a.3.pdb.xyz.mst.a.w.chk"
 -------------------
 SM46_m1.a.3.pdb.xyz
 -------------------
 Charge = -1 Multiplicity = 1

 SCF Done:  E(RB3LYP) =  -1210.71202242     A.U. after    7 cycles
 Normal termination of Gaussian 16 at Thu Sep 24 17:02:44 2020.

 -----------------------------
 #p B3LYP/6-31G* geom=allcheck
 -----------------------------

 Structure from the checkpoint file:  "SM46_m1.a.3.pdb.xyz.mst.a.w.chk"
 -------------------
 SM46_m1.a.3.pdb.xyz
 -------------------
 Charge = -1 Multiplicity = 1

 SCF Done:  E(RB3LYP) =  -1210.60613358     A.U. after   15 cycles
 Normal termination of Gaussian 16 at Thu Sep 24 17:03:23 2020.
 Gaussian 16:  ES64L-G16RevB.01 20-Dec-2017

 ----------------------------------------------------------------------
 #p mp2/aug-cc-pVDZ scf=(MaxCycle=2000,NoVarAcc,NoIncFock) maxdisk=120G
 B geom=allcheck
 ----------------------------------------------------------------------

 Structure from the checkpoint file:  "SM46_m1.a.3.pdb.xyz.mst.a.w.chk"
 -------------------
 SM46_m1.a.3.pdb.xyz
 -------------------
 Charge = -1 Multiplicity = 1

                         Standard orientation:
 ---------------------------------------------------------------------
 Center     Atomic      Atomic             Coordinates (Angstroms)
 Number     Number       Type             X           Y           Z
 ---------------------------------------------------------------------
      1          8           0       -4.248389   -0.246535   -1.255279
      2         16           0       -3.119185   -0.384837   -0.306731
      3          7           0       -1.787746   -0.058462   -1.125392
      4          6           0       -0.532992   -0.394318   -0.642468
      5          7           0       -0.135718   -1.624668   -0.162388
      6          7           0        1.151956   -1.602876    0.088248
      7          6           0        0.598810    0.408229   -0.692529
      8          7           0        1.613172   -0.375412   -0.236080
      9          6           0        2.989435   -0.053574   -0.089854
     10          6           0        3.536981    1.001830   -0.824710
     11          6           0        4.885932    1.317198   -0.668346
     12          6           0        5.688599    0.579607    0.203578
     13          6           0        5.132425   -0.478428    0.927273
     14          6           0        3.782267   -0.796605    0.791209
     15          7           0       -3.440881    0.841035    0.874164
     16          6           0       -2.512187    0.824699    2.009248
     17          6           0       -3.592092    2.179959    0.297435
     18          8           0       -3.095826   -1.625469    0.507334
     19          1           0        0.735791    1.435318   -0.983406
     20          1           0        2.920317    1.561103   -1.518060
     21          1           0        5.308600    2.137258   -1.238387
     22          1           0        6.738315    0.826863    0.318688
     23          1           0        5.747849   -1.055077    1.609518
     24          1           0        3.336487   -1.605347    1.355493
     25          1           0       -2.409942   -0.196564    2.374048
     26          1           0       -2.934054    1.445113    2.805081
     27          1           0       -1.518174    1.220141    1.754897
     28          1           0       -4.292682    2.133773   -0.535887
     29          1           0       -2.639411    2.602944   -0.053975
     30          1           0       -4.000961    2.839003    1.068364
 ---------------------------------------------------------------------

 SCF Done:  E(RHF) =  -1205.13949260     A.U. after   18 cycles
 E2 =    -0.2825833684D+01 EUMP2 =    -0.12079653262837D+04

 The electronic state is 1-A.
 Alpha  occ. eigenvalues --  -92.05439 -20.37398 -20.37137 -15.55477 -15.52783
 Alpha  occ. eigenvalues --  -15.47459 -15.45017 -15.38182 -11.22043 -11.18052
 Alpha  occ. eigenvalues --  -11.17879 -11.17349 -11.17261 -11.17090 -11.16859
 Alpha  occ. eigenvalues --  -11.15012 -11.13677 -11.13652  -9.01828  -6.70402
 Alpha  occ. eigenvalues --   -6.70327  -6.70292  -1.31926  -1.27553  -1.14664
 Alpha  occ. eigenvalues --   -1.12849  -1.08694  -1.06856  -1.03863  -0.95623
 Alpha  occ. eigenvalues --   -0.94571  -0.92031  -0.83678  -0.79004  -0.78115
 Alpha  occ. eigenvalues --   -0.76488  -0.70610  -0.70038  -0.65973  -0.62173
 Alpha  occ. eigenvalues --   -0.59400  -0.56514  -0.55649  -0.54538  -0.52993
 Alpha  occ. eigenvalues --   -0.52255  -0.51996  -0.50584  -0.50129  -0.48922
 Alpha  occ. eigenvalues --   -0.45374  -0.44728  -0.43611  -0.43397  -0.42996
 Alpha  occ. eigenvalues --   -0.42833  -0.40105  -0.39285  -0.35249  -0.33876
 Alpha  occ. eigenvalues --   -0.32372  -0.31568  -0.30051  -0.29951  -0.28301
 Alpha  occ. eigenvalues --   -0.27281  -0.26289  -0.23926  -0.23472  -0.16110
 Alpha virt. eigenvalues --    0.08606   0.09596   0.10679   0.11703   0.12463
 Alpha virt. eigenvalues --    0.13133   0.13691   0.14224   0.15421   0.16009
 Alpha virt. eigenvalues --    0.16499   0.17032   0.17258   0.17496   0.18223

 Mulliken charges:
               1
     1  O   -1.182294
     2  S    2.917126
     3  N   -1.268684
     4  C    0.968411
     5  N   -0.704579
     6  N   -0.435967
     7  C    0.597364
     8  N   -0.542117
     9  C    0.888964
    10  C    0.018157
    11  C    0.746753
    12  C    0.623405
    13  C    0.598670
    14  C    0.478815
    15  N   -1.161249
    16  C    0.851545
    17  C    0.705067
    18  O   -1.196326
    19  H   -0.564322
    20  H   -0.665732
    21  H   -0.455696
    22  H   -0.465333
    23  H   -0.447145
    24  H   -0.543771
    25  H   -0.161611
    26  H   -0.227356
    27  H   -0.029443
    28  H   -0.130549
    29  H   -0.029020
    30  H   -0.183082
 Sum of Mulliken charges =  -1.00000

 Dipole moment (field-independent basis, Debye):
    X=             12.9809    Y=              6.8985    Z=              2.9555  Tot=             14.9942
 Quadrupole moment (field-independent basis, Debye-Ang):
   XX=           -169.4526   YY=           -127.0528   ZZ=           -123.8401
   XY=            -10.2667   XZ=             -9.4036   YZ=             -2.9314

 Normal termination of Gaussian 16 at Thu Sep 24 17:37:00 2020.
