 Gaussian 16, Revision B.01,

 ----------------------------------------------------------------------
 #p b3lyp/6-31G(d) opt freq NoSymm scf=(MaxCycle=2000,NoVarAcc,NoIncFoc
 k) scrf=(iefpcm,read,solvent=water)
 ----------------------------------------------------------------------

 -------------------
 SM46_m2.b.9.pdb.xyz
 -------------------
 Symbolic Z-matrix:
 Charge =  1 Multiplicity = 1

 SCF Done:  E(RB3LYP) =  -1211.63454774     A.U. after   13 cycles
 SCF Done:  E(RB3LYP) =  -1211.63447374     A.U. after    9 cycles
 SCF Done:  E(RB3LYP) =  -1211.63448366     A.U. after    8 cycles
 SCF Done:  E(RB3LYP) =  -1211.63454632     A.U. after    9 cycles
 SCF Done:  E(RB3LYP) =  -1211.63454895     A.U. after    8 cycles
 SCF Done:  E(RB3LYP) =  -1211.63446057     A.U. after   10 cycles
 SCF Done:  E(RB3LYP) =  -1211.63443042     A.U. after    9 cycles
 SCF Done:  E(RB3LYP) =  -1211.63454677     A.U. after   10 cycles
 SCF Done:  E(RB3LYP) =  -1211.63454891     A.U. after    8 cycles
 SCF Done:  E(RB3LYP) =  -1211.63437072     A.U. after   10 cycles
 SCF Done:  E(RB3LYP) =  -1211.63454689     A.U. after    5 cycles
 SCF Done:  E(RB3LYP) =  -1211.63454688     A.U. after    3 cycles
 SCF Done:  E(RB3LYP) =  -1211.63442846     A.U. after   10 cycles
 SCF Done:  E(RB3LYP) =  -1211.63441786     A.U. after    7 cycles
 SCF Done:  E(RB3LYP) =  -1211.63454689     A.U. after   10 cycles
 SCF Done:  E(RB3LYP) =  -1211.63442080     A.U. after   10 cycles
 Optimization completed.
    -- Stationary point found.
 Normal termination of Gaussian 16 at Thu Sep 24 17:03:56 2020.

 --------------------------------------------------------------------
 #P Geom=AllCheck Guess=TCheck SCRF=Check GenChk RB3LYP/6-31G(d) Freq
 --------------------------------------------------------------------

 Structure from the checkpoint file:  "SM46_m2.b.9.pdb.xyz.mst.b.w.chk"
 -------------------
 SM46_m2.b.9.pdb.xyz
 -------------------
 Charge =  1 Multiplicity = 1

 SCF Done:  E(RB3LYP) =  -1211.63442080     A.U. after    1 cycles

  Exact polarizability: 281.226  18.631 223.346   5.258 -21.952 125.503
 Approx polarizability: 303.932  18.380 263.769   3.451 -27.451 150.702

                      1                      2                      3
                      A                      A                      A
 Frequencies --     24.9859                34.9591                43.4360
 Red. masses --      3.7756                 5.2675                 5.1975
 Frc consts  --      0.0014                 0.0038                 0.0058
 IR Inten    --      0.1857                 5.0235                 2.3453

                      4                      5                      6
                      A                      A                      A
 Frequencies --     64.7915                86.1721                91.2097
 Red. masses --      3.7335                 3.8028                 4.8769
 Frc consts  --      0.0092                 0.0166                 0.0239
 IR Inten    --      1.1207                 1.9789                 1.6255

                      7                      8                      9
                      A                      A                      A
 Frequencies --    122.1896               176.7550               204.0682
 Red. masses --      5.6313                 1.7012                 1.4367
 Frc consts  --      0.0495                 0.0313                 0.0353
 IR Inten    --      3.1878                 9.0465                 7.0286

                     10                     11                     12
                      A                      A                      A
 Frequencies --    212.3757               228.0533               257.3731
 Red. masses --      1.8728                 2.2683                 5.3387
 Frc consts  --      0.0498                 0.0695                 0.2084
 IR Inten    --      2.6521                 5.2293                 1.0456

                     13                     14                     15
                      A                      A                      A
 Frequencies --    270.7341               311.0019               341.6252
 Red. masses --      5.2251                 4.5426                 5.7993
 Frc consts  --      0.2256                 0.2589                 0.3988
 IR Inten    --      1.9766                 4.9647                 7.5128

                     16                     17                     18
                      A                      A                      A
 Frequencies --    355.8843               381.8365               417.0369
 Red. masses --      2.8602                 7.5670                 2.9919
 Frc consts  --      0.2134                 0.6500                 0.3066
 IR Inten    --      6.4666                11.1976                 0.3579

                     19                     20                     21
                      A                      A                      A
 Frequencies --    418.3220               449.2286               470.3571
 Red. masses --      4.0517                 5.1292                 4.0127
 Frc consts  --      0.4177                 0.6099                 0.5230
 IR Inten    --      9.1934                 8.7435                33.9062

                     22                     23                     24
                      A                      A                      A
 Frequencies --    488.0253               508.1342               537.8239
 Red. masses --      2.4815                 3.5222                 3.8676
 Frc consts  --      0.3482                 0.5358                 0.6591
 IR Inten    --     70.0102               131.5330                22.5679

                     25                     26                     27
                      A                      A                      A
 Frequencies --    565.8186               626.1330               656.9550
 Red. masses --      7.8246                 6.3786                 4.7403
 Frc consts  --      1.4759                 1.4734                 1.2054
 IR Inten    --    159.3251                 0.0531                38.4442

                     28                     29                     30
                      A                      A                      A
 Frequencies --    677.5010               681.5641               697.8692
 Red. masses --      1.4425                 5.5979                 6.0108
 Frc consts  --      0.3901                 1.5321                 1.7248
 IR Inten    --     92.7140                80.5386                48.1291

                     31                     32                     33
                      A                      A                      A
 Frequencies --    699.6906               709.8126               780.8013
 Red. masses --      2.0548                 2.6528                 1.6068
 Frc consts  --      0.5927                 0.7875                 0.5772
 IR Inten    --     62.1264                34.3399                74.8598

                     34                     35                     36
                      A                      A                      A
 Frequencies --    799.0087               809.6192               850.7096
 Red. masses --      1.9834                 2.6936                 2.2571
 Frc consts  --      0.7460                 1.0403                 0.9624
 IR Inten    --    113.0095                13.0081               211.8852

                     37                     38                     39
                      A                      A                      A
 Frequencies --    853.5539               940.7079               944.9858
 Red. masses --      1.7608                 3.1768                 1.3679
 Frc consts  --      0.7558                 1.6563                 0.7197
 IR Inten    --    119.6778               189.5455                 4.9004

                     40                     41                     42
                      A                      A                      A
 Frequencies --    986.6214              1008.7288              1019.0235
 Red. masses --      1.3498                 8.0216                 1.2906
 Frc consts  --      0.7741                 4.8091                 0.7896
 IR Inten    --      0.5971                17.2826                 0.2266

                     43                     44                     45
                      A                      A                      A
 Frequencies --   1022.8604              1051.2093              1064.8805
 Red. masses --      6.3001                 2.1466                 1.6297
 Frc consts  --      3.8836                 1.3976                 1.0889
 IR Inten    --      0.5502                 4.4507                30.1299

                     46                     47                     48
                      A                      A                      A
 Frequencies --   1067.1072              1106.8063              1111.7422
 Red. masses --      2.0782                 2.7756                 2.1722
 Frc consts  --      1.3943                 2.0033                 1.5818
 IR Inten    --     97.4604                36.8808               151.8443

                     49                     50                     51
                      A                      A                      A
 Frequencies --   1113.8322              1128.6641              1172.3224
 Red. masses --      4.1814                 1.2674                 1.3633
 Frc consts  --      3.0564                 0.9513                 1.1039
 IR Inten    --    173.2285                12.5826                 4.8897

                     52                     53                     54
                      A                      A                      A
 Frequencies --   1195.0234              1199.5502              1213.0712
 Red. masses --      1.1197                 1.1540                 2.1537
 Frc consts  --      0.9421                 0.9784                 1.8673
 IR Inten    --      1.3574                 2.1938                61.4376

                     55                     56                     57
                      A                      A                      A
 Frequencies --   1215.6710              1235.7841              1279.2183
 Red. masses --      3.3658                 2.7444                 2.0091
 Frc consts  --      2.9307                 2.4694                 1.9370
 IR Inten    --     47.5451                 2.1158                49.3776

                     58                     59                     60
                      A                      A                      A
 Frequencies --   1302.7496              1332.9220              1344.0011
 Red. masses --      7.2019                 4.1987                 1.7269
 Frc consts  --      7.2015                 4.3952                 1.8379
 IR Inten    --    281.3673               106.9424                 5.3714

                     61                     62                     63
                      A                      A                      A
 Frequencies --   1367.5413              1396.7255              1435.0264
 Red. masses --      4.3211                 2.5800                 2.3961
 Frc consts  --      4.7613                 2.9655                 2.9072
 IR Inten    --      4.2267                 4.2247                80.3834

                     64                     65                     66
                      A                      A                      A
 Frequencies --   1451.5069              1462.1136              1471.5855
 Red. masses --      1.1499                 2.9901                 1.1513
 Frc consts  --      1.4274                 3.7662                 1.4689
 IR Inten    --      0.4914                12.8099                 4.4557

                     67                     68                     69
                      A                      A                      A
 Frequencies --   1501.0083              1507.4691              1512.0699
 Red. masses --      1.0439                 2.1465                 1.0490
 Frc consts  --      1.3858                 2.8739                 1.4131
 IR Inten    --      7.5950                12.8234                16.9696

                     70                     71                     72
                      A                      A                      A
 Frequencies --   1513.6624              1528.9054              1531.2150
 Red. masses --      1.0729                 1.0629                 2.4746
 Frc consts  --      1.4483                 1.4639                 3.4184
 IR Inten    --     19.9153                18.1913               144.5680

                     73                     74                     75
                      A                      A                      A
 Frequencies --   1541.6343              1649.9792              1654.9738
 Red. masses --      2.4730                 5.7115                 5.6922
 Frc consts  --      3.4629                 9.1613                 9.1857
 IR Inten    --     22.0815               201.0157                83.2954

                     76                     77                     78
                      A                      A                      A
 Frequencies --   1665.4040              3069.1814              3070.4844
 Red. masses --      5.7613                 1.0409                 1.0411
 Frc consts  --      9.4147                 5.7772                 5.7829
 IR Inten    --    249.5892                37.1826                79.2085

                     79                     80                     81
                      A                      A                      A
 Frequencies --   3153.0230              3155.8927              3188.2597
 Red. masses --      1.0971                 1.0978                 1.1052
 Frc consts  --      6.4261                 6.4419                 6.6191
 IR Inten    --     38.6408                 4.2711                10.3191

                     82                     83                     84
                      A                      A                      A
 Frequencies --   3211.1759              3220.5275              3230.3867
 Red. masses --      1.1026                 1.0869                 1.0899
 Frc consts  --      6.6985                 6.6419                 6.7013
 IR Inten    --      5.1076                 0.3412                12.4262

                     85                     86                     87
                      A                      A                      A
 Frequencies --   3237.5534              3246.3296              3254.7171
 Red. masses --      1.0937                 1.0959                 1.0947
 Frc consts  --      6.7541                 6.8049                 6.8321
 IR Inten    --     28.7325                 7.5045                 1.8186

                     88                     89                     90
                      A                      A                      A
 Frequencies --   3361.9326              3508.4536              3521.7513
 Red. masses --      1.1014                 1.0868                 1.0775
 Frc consts  --      7.3344                 7.8822                 7.8740
 IR Inten    --     31.2491               487.0823               369.0499

 - Thermochemistry -
 -------------------
 Temperature   298.150 Kelvin.  Pressure   1.00000 Atm.
 Atom     1 has atomic number  8 and mass  15.99491

 Molecular mass:   268.08682 amu.
 Principal axes and moments of inertia in atomic units:
                           1         2         3
     Eigenvalues --  2096.178529489.96935**********
           X            0.99988  -0.00527  -0.01437
           Y            0.00611   0.99822   0.05937
           Z            0.01403  -0.05945   0.99813
 This molecule is an asymmetric top.
 Rotational symmetry number  1.
 Warning -- assumption of classical behavior for rotation
           may cause significant error
 Rotational temperatures (Kelvin)      0.04132     0.00913     0.00816
 Rotational constants (GHZ):           0.86097     0.19017     0.16994
 Zero-point vibrational energy     667416.9 (Joules/Mol)
                                  159.51646 (Kcal/Mol)
 Warning -- explicit consideration of  25 degrees of freedom as
           vibrations may cause significant error
 Vibrational temperatures:     35.95    50.30    62.49    93.22   123.98
          (Kelvin)            131.23   175.80   254.31   293.61   305.56
                              328.12   370.30   389.53   447.46   491.52
                              512.04   549.38   600.02   601.87   646.34
                              676.74   702.16   731.09   773.81   814.09
                              900.87   945.21   974.77   980.62  1004.08
                             1006.70  1021.26  1123.40  1149.60  1164.86
                             1223.98  1228.07  1353.47  1359.62  1419.53
                             1451.34  1466.15  1471.67  1512.46  1532.13
                             1535.33  1592.45  1599.55  1602.56  1623.90
                             1686.71  1719.37  1725.89  1745.34  1749.08
                             1778.02  1840.51  1874.37  1917.78  1933.72
                             1967.59  2009.58  2064.68  2088.39  2103.66
                             2117.28  2159.62  2168.91  2175.53  2177.82
                             2199.75  2203.08  2218.07  2373.95  2381.14
                             2396.14  4415.87  4417.74  4536.50  4540.63
                             4587.19  4620.17  4633.62  4647.81  4658.12
                             4670.74  4682.81  4837.07  5047.88  5067.01

 Zero-point correction=                           0.254206 (Hartree/Particle)
 Thermal correction to Energy=                    0.271042
 Thermal correction to Enthalpy=                  0.271986
 Thermal correction to Gibbs Free Energy=         0.207864
 Sum of electronic and zero-point Energies=          -1211.380215
 Sum of electronic and thermal Energies=             -1211.363379
 Sum of electronic and thermal Enthalpies=           -1211.362435
 Sum of electronic and thermal Free Energies=        -1211.426556

                     E (Thermal)             CV                S
                      KCal/Mol        Cal/Mol-Kelvin    Cal/Mol-Kelvin
 Total                  170.081             63.721            134.955
 Electronic               0.000              0.000              0.000
 Translational            0.889              2.981             42.657
 Rotational               0.889              2.981             33.712
 Vibrational            168.304             57.760             58.585
 Vibration     1          0.593              1.985              6.192
 Vibration     2          0.594              1.982              5.526
 Vibration     3          0.595              1.980              5.096
 Vibration     4          0.597              1.971              4.306
 Vibration     5          0.601              1.959              3.745
 Vibration     6          0.602              1.955              3.634
 Vibration     7          0.610              1.931              3.065
 Vibration     8          0.628              1.871              2.362
 Vibration     9          0.640              1.834              2.096
 Vibration    10          0.643              1.822              2.023
 Vibration    11          0.651              1.798              1.894
 Vibration    12          0.667              1.750              1.680
 Vibration    13          0.674              1.727              1.592
 Vibration    14          0.700              1.653              1.357
 Vibration    15          0.721              1.592              1.205
 Vibration    16          0.731              1.563              1.140
 Vibration    17          0.751              1.509              1.032
 Vibration    18          0.780              1.433              0.902
 Vibration    19          0.781              1.430              0.898
 Vibration    20          0.808              1.363              0.798
 Vibration    21          0.827              1.316              0.737
 Vibration    22          0.844              1.277              0.689
 Vibration    23          0.863              1.232              0.638
 Vibration    24          0.893              1.166              0.570
 Vibration    25          0.922              1.105              0.512

 Optimization completed.
    -- Stationary point found.
 Normal termination of Gaussian 16 at Thu Sep 24 17:12:15 2020.

 ----------------------------------------------------------------------
 #p b3lyp/6-31G(d) scrf=(iefpcm,read,solvent=water) geom=allcheck guess
 =read
 ----------------------------------------------------------------------

 Structure from the checkpoint file:  "SM46_m2.b.9.pdb.xyz.mst.b.w.chk"
 -------------------
 SM46_m2.b.9.pdb.xyz
 -------------------
 Charge =  1 Multiplicity = 1

 SCF Done:  E(RB3LYP) =  -1211.63440362     A.U. after    7 cycles
 Normal termination of Gaussian 16 at Thu Sep 24 17:12:48 2020.

 -----------------------------
 #p B3LYP/6-31G* geom=allcheck
 -----------------------------

 Structure from the checkpoint file:  "SM46_m2.b.9.pdb.xyz.mst.b.w.chk"
 -------------------
 SM46_m2.b.9.pdb.xyz
 -------------------
 Charge =  1 Multiplicity = 1

 SCF Done:  E(RB3LYP) =  -1211.53231754     A.U. after   15 cycles
 Normal termination of Gaussian 16 at Thu Sep 24 17:13:26 2020.
 Gaussian 16:  ES64L-G16RevB.01 20-Dec-2017

 ----------------------------------------------------------------------
 #p mp2/aug-cc-pVDZ scf=(MaxCycle=2000,NoVarAcc,NoIncFock) maxdisk=120G
 B geom=allcheck
 ----------------------------------------------------------------------

 Structure from the checkpoint file:  "SM46_m2.b.9.pdb.xyz.mst.b.w.chk"
 -------------------
 SM46_m2.b.9.pdb.xyz
 -------------------
 Charge =  1 Multiplicity = 1

                         Standard orientation:
 ---------------------------------------------------------------------
 Center     Atomic      Atomic             Coordinates (Angstroms)
 Number     Number       Type             X           Y           Z
 ---------------------------------------------------------------------
      1          8           0       -2.519883    0.089038   -1.783813
      2         16           0       -2.961475   -0.160769   -0.412321
      3          7           0       -1.934964   -1.277968    0.375959
      4          6           0       -0.568735   -1.229488    0.189577
      5          7           0        0.193324   -2.327144   -0.054858
      6          7           0        1.482211   -2.058872   -0.141970
      7          6           0        0.331734   -0.183373    0.247787
      8          7           0        1.549369   -0.752925    0.032142
      9          6           0        2.823074   -0.093570    0.000434
     10          6           0        2.891538    1.216974   -0.469428
     11          6           0        4.130832    1.854036   -0.490390
     12          6           0        5.275228    1.181945   -0.057008
     13          6           0        5.184298   -0.133298    0.404706
     14          6           0        3.952390   -0.782284    0.442427
     15          7           0       -2.595119    1.196685    0.476592
     16          6           0       -2.779921    2.481053   -0.226249
     17          6           0       -3.084578    1.181211    1.867215
     18          8           0       -4.295791   -0.713892   -0.169652
     19          1           0       -2.343391   -2.214949    0.388324
     20          1           0        0.189417    0.862938    0.446843
     21          1           0        2.003596    1.723223   -0.827535
     22          1           0        4.198932    2.872212   -0.855685
     23          1           0        6.236831    1.682354   -0.078628
     24          1           0        6.070789   -0.654741    0.746759
     25          1           0        3.860966   -1.794847    0.813325
     26          1           0       -2.343490    2.415188   -1.220153
     27          1           0       -2.246309    3.236827    0.351359
     28          1           0       -3.834807    2.765638   -0.299492
     29          1           0       -2.838741    0.225241    2.328830
     30          1           0       -4.164275    1.354634    1.923970
     31          1           0       -2.560937    1.975407    2.400901
     32          1           0       -0.118494   -3.295653   -0.163450
 ---------------------------------------------------------------------

 SCF Done:  E(RHF) =  -1206.06173641     A.U. after   17 cycles
 E2 =    -0.2803652272D+01 EUMP2 =    -0.12088653886829D+04

 The electronic state is 1-A.
 Alpha  occ. eigenvalues --  -92.38285 -20.69560 -20.69257 -15.89491 -15.87853
 Alpha  occ. eigenvalues --  -15.86787 -15.78873 -15.74382 -11.53583 -11.47337
 Alpha  occ. eigenvalues --  -11.44381 -11.39470 -11.39396 -11.39065 -11.39047
 Alpha  occ. eigenvalues --  -11.37891 -11.37771 -11.37659  -9.34708  -7.03253
 Alpha  occ. eigenvalues --   -7.03215  -7.03157  -1.68068  -1.60543  -1.47470
 Alpha  occ. eigenvalues --   -1.47336  -1.42037  -1.38021  -1.30118  -1.28749
 Alpha  occ. eigenvalues --   -1.19528  -1.16438  -1.10379  -1.09553  -1.09285
 Alpha  occ. eigenvalues --   -1.05582  -0.99393  -0.97555  -0.95988  -0.93613
 Alpha  occ. eigenvalues --   -0.88070  -0.87679  -0.87156  -0.85795  -0.83274
 Alpha  occ. eigenvalues --   -0.81676  -0.81260  -0.78833  -0.77095  -0.75962
 Alpha  occ. eigenvalues --   -0.74828  -0.73641  -0.73416  -0.72010  -0.70420
 Alpha  occ. eigenvalues --   -0.69700  -0.68507  -0.67335  -0.65837  -0.65350
 Alpha  occ. eigenvalues --   -0.64189  -0.63933  -0.62705  -0.62162  -0.61635
 Alpha  occ. eigenvalues --   -0.59912  -0.53691  -0.52360  -0.47704  -0.47467
 Alpha virt. eigenvalues --   -0.09291  -0.07845  -0.06050  -0.04873  -0.04707
 Alpha virt. eigenvalues --   -0.03726  -0.03482  -0.03100  -0.02364  -0.02173
 Alpha virt. eigenvalues --   -0.01950  -0.01487  -0.01231  -0.00825  -0.00256

 Mulliken charges:
               1
     1  O   -1.099015
     2  S    3.251240
     3  N   -0.898296
     4  C    0.386734
     5  N   -0.343681
     6  N   -0.243427
     7  C    1.323274
     8  N   -0.668060
     9  C    0.948963
    10  C    0.553431
    11  C    0.464762
    12  C    0.636619
    13  C    0.498368
    14  C    0.589592
    15  N   -1.057594
    16  C    0.786574
    17  C    0.719631
    18  O   -1.108183
    19  H   -0.062154
    20  H   -0.620189
    21  H   -0.613346
    22  H   -0.427815
    23  H   -0.416277
    24  H   -0.413011
    25  H   -0.523939
    26  H   -0.116350
    27  H   -0.145632
    28  H   -0.075384
    29  H   -0.125253
    30  H   -0.060732
    31  H   -0.143868
    32  H    0.003022
 Sum of Mulliken charges =   1.00000

 Dipole moment (field-independent basis, Debye):
    X=              5.0343    Y=             -1.1796    Z=              3.5967  Tot=              6.2985
 Quadrupole moment (field-independent basis, Debye-Ang):
   XX=            -76.4890   YY=            -75.0730   ZZ=           -115.1092
   XY=             -1.5156   XZ=             -8.2289   YZ=             -2.0945

 Normal termination of Gaussian 16 at Thu Sep 24 18:03:00 2020.
