 Gaussian 16, Revision B.01,

 ----------------------------------------------------------------------
 #p b3lyp/6-31G(d) opt freq NoSymm scf=(MaxCycle=2000,NoVarAcc,NoIncFoc
 k) scrf=(iefpcm,read,solvent=water)
 ----------------------------------------------------------------------

 -------------------
 SM46_m2.b.2.pdb.xyz
 -------------------
 Symbolic Z-matrix:
 Charge =  1 Multiplicity = 1

 SCF Done:  E(RB3LYP) =  -1211.63477311     A.U. after   13 cycles
 SCF Done:  E(RB3LYP) =  -1211.63478366     A.U. after    8 cycles
 SCF Done:  E(RB3LYP) =  -1211.63478614     A.U. after    8 cycles
 SCF Done:  E(RB3LYP) =  -1211.63478674     A.U. after    6 cycles
 Optimization completed.
    -- Stationary point found.
 Normal termination of Gaussian 16 at Mon Sep 28 08:26:34 2020.

 --------------------------------------------------------------------
 #P Geom=AllCheck Guess=TCheck SCRF=Check GenChk RB3LYP/6-31G(d) Freq
 --------------------------------------------------------------------

 Structure from the checkpoint file:  "SM46_m2.b.2.pdb.xyz.mst.b.w.chk"
 -------------------
 SM46_m2.b.2.pdb.xyz
 -------------------
 Charge =  1 Multiplicity = 1

 SCF Done:  E(RB3LYP) =  -1211.63478674     A.U. after    1 cycles

  Exact polarizability: 309.283   3.233 201.681  10.263 -28.605 128.146
 Approx polarizability: 315.648   0.363 255.740  11.158 -35.933 151.209

                      1                      2                      3
                      A                      A                      A
 Frequencies --     26.3673                29.5718                41.2029
 Red. masses --      5.6182                 4.9427                 4.3644
 Frc consts  --      0.0023                 0.0025                 0.0044
 IR Inten    --      2.8089                 1.4266                 1.6432

                      4                      5                      6
                      A                      A                      A
 Frequencies --     82.0342                87.4821                98.6479
 Red. masses --      2.7360                 4.8480                 4.5673
 Frc consts  --      0.0108                 0.0219                 0.0262
 IR Inten    --      1.1407                 2.4383                 5.2515

                      7                      8                      9
                      A                      A                      A
 Frequencies --    134.6520               150.8831               201.5124
 Red. masses --      4.4792                 5.4078                 1.1055
 Frc consts  --      0.0478                 0.0725                 0.0264
 IR Inten    --      2.7383                10.0437                 1.1031

                     10                     11                     12
                      A                      A                      A
 Frequencies --    210.0069               248.2092               273.8486
 Red. masses --      1.1026                 5.4660                 4.7063
 Frc consts  --      0.0286                 0.1984                 0.2079
 IR Inten    --      1.3235                 1.1451                 3.9946

                     13                     14                     15
                      A                      A                      A
 Frequencies --    277.1915               293.7742               339.1568
 Red. masses --      4.0882                 7.6113                 3.6306
 Frc consts  --      0.1851                 0.3870                 0.2461
 IR Inten    --      2.9354                10.1787                 3.0309

                     16                     17                     18
                      A                      A                      A
 Frequencies --    360.5464               384.8682               395.1178
 Red. masses --      3.2071                 5.2727                 5.2158
 Frc consts  --      0.2456                 0.4602                 0.4798
 IR Inten    --     16.0646                 2.7332                 8.9417

                     19                     20                     21
                      A                      A                      A
 Frequencies --    419.0710               456.7007               473.1055
 Red. masses --      2.9925                 5.9190                 4.3149
 Frc consts  --      0.3096                 0.7274                 0.5690
 IR Inten    --      0.0973                10.3835                24.3737

                     22                     23                     24
                      A                      A                      A
 Frequencies --    483.5974               515.9964               536.2447
 Red. masses --      5.0736                 3.2890                 3.5293
 Frc consts  --      0.6991                 0.5159                 0.5980
 IR Inten    --     35.5990               104.6784                81.9084

                     25                     26                     27
                      A                      A                      A
 Frequencies --    561.5153               626.8248               672.1850
 Red. masses --      7.7362                 6.4464                 2.6986
 Frc consts  --      1.4371                 1.4923                 0.7184
 IR Inten    --    208.9508                 0.5585                 4.9513

                     28                     29                     30
                      A                      A                      A
 Frequencies --    683.0413               688.5601               701.3785
 Red. masses --      3.1950                 5.4813                 2.2603
 Frc consts  --      0.8783                 1.5311                 0.6551
 IR Inten    --     63.3993                57.5516                77.0076

                     31                     32                     33
                      A                      A                      A
 Frequencies --    707.1970               715.0519               781.0307
 Red. masses --      5.4900                 1.6094                 1.6171
 Frc consts  --      1.6177                 0.4848                 0.5812
 IR Inten    --    226.8944                99.3148                69.0315

                     34                     35                     36
                      A                      A                      A
 Frequencies --    786.8822               816.7679               826.4607
 Red. masses --      1.7976                 2.3146                 4.8870
 Frc consts  --      0.6558                 0.9098                 1.9667
 IR Inten    --     97.0221                51.3572               263.8640

                     37                     38                     39
                      A                      A                      A
 Frequencies --    854.8996               946.6733               952.0059
 Red. masses --      1.2546                 1.3676                 3.1148
 Frc consts  --      0.5403                 0.7221                 1.6633
 IR Inten    --      0.6249                 6.7777               194.7075

                     40                     41                     42
                      A                      A                      A
 Frequencies --    988.7575              1007.3267              1019.4583
 Red. masses --      1.3477                 8.1680                 1.2855
 Frc consts  --      0.7763                 4.8832                 0.7871
 IR Inten    --      0.5838                19.5079                 0.2409

                     43                     44                     45
                      A                      A                      A
 Frequencies --   1022.7226              1053.9523              1069.3746
 Red. masses --      6.2626                 2.1672                 1.6066
 Frc consts  --      3.8594                 1.4184                 1.0825
 IR Inten    --      1.1451                 4.8817                26.5440

                     46                     47                     48
                      A                      A                      A
 Frequencies --   1075.5205              1111.8254              1116.3972
 Red. masses --      2.7722                 2.1309                 1.8870
 Frc consts  --      1.8893                 1.5520                 1.3857
 IR Inten    --     78.4685                 2.4568                45.4860

                     49                     50                     51
                      A                      A                      A
 Frequencies --   1122.2540              1131.5127              1174.4337
 Red. masses --     12.1597                 1.2161                 1.3669
 Frc consts  --      9.0231                 0.9173                 1.1108
 IR Inten    --    263.1350                 1.6811                 1.5926

                     52                     53                     54
                      A                      A                      A
 Frequencies --   1196.6810              1205.2347              1221.9990
 Red. masses --      1.0961                 1.1431                 2.9325
 Frc consts  --      0.9248                 0.9783                 2.5801
 IR Inten    --      0.1589                 3.7209                83.8787

                     55                     56                     57
                      A                      A                      A
 Frequencies --   1223.6877              1250.8381              1288.4199
 Red. masses --      2.3025                 2.7717                 1.9650
 Frc consts  --      2.0314                 2.5550                 1.9219
 IR Inten    --     23.7001                11.4704                36.6085

                     58                     59                     60
                      A                      A                      A
 Frequencies --   1315.7329              1348.3685              1359.5791
 Red. masses --      7.0993                 2.0270                 4.9676
 Frc consts  --      7.2410                 2.1713                 5.4101
 IR Inten    --    205.4815                 9.4336               145.1371

                     61                     62                     63
                      A                      A                      A
 Frequencies --   1369.5453              1405.5849              1421.0654
 Red. masses --      3.3070                 2.1328                 2.8717
 Frc consts  --      3.6546                 2.4826                 3.4168
 IR Inten    --      4.4024                29.2949               144.1054

                     64                     65                     66
                      A                      A                      A
 Frequencies --   1456.1034              1469.2714              1474.5317
 Red. masses --      1.1467                 2.8570                 1.1509
 Frc consts  --      1.4325                 3.6338                 1.4743
 IR Inten    --      2.2611                13.6502                 4.3930

                     67                     68                     69
                      A                      A                      A
 Frequencies --   1503.6838              1507.9459              1512.9618
 Red. masses --      1.0583                 1.9839                 1.0481
 Frc consts  --      1.4099                 2.6579                 1.4135
 IR Inten    --     11.6096                24.2059                15.1989

                     70                     71                     72
                      A                      A                      A
 Frequencies --   1519.7875              1523.8743              1531.1854
 Red. masses --      1.1119                 2.2541                 1.0524
 Frc consts  --      1.5131                 3.0840                 1.4538
 IR Inten    --     44.1751                 7.8487                21.1849

                     73                     74                     75
                      A                      A                      A
 Frequencies --   1542.9152              1648.7488              1655.4555
 Red. masses --      2.4192                 5.4096                 5.5998
 Frc consts  --      3.3932                 8.6641                 9.0419
 IR Inten    --     43.6065               332.7498                59.9740

                     76                     77                     78
                      A                      A                      A
 Frequencies --   1664.7809              3063.9142              3068.4605
 Red. masses --      5.7674                 1.0428                 1.0431
 Frc consts  --      9.4177                 5.7680                 5.7867
 IR Inten    --    220.4749                34.9791                63.9328

                     79                     80                     81
                      A                      A                      A
 Frequencies --   3153.0475              3154.5892              3201.8166
 Red. masses --      1.0951                 1.0963                 1.1037
 Frc consts  --      6.4144                 6.4281                 6.6662
 IR Inten    --     25.8114                18.3371                 6.1493

                     82                     83                     84
                      A                      A                      A
 Frequencies --   3208.6646              3221.0854              3231.6320
 Red. masses --      1.1027                 1.0869                 1.0899
 Frc consts  --      6.6891                 6.6444                 6.7064
 IR Inten    --      4.5678                 0.6115                12.7846

                     85                     86                     87
                      A                      A                      A
 Frequencies --   3238.6374              3246.8821              3257.1385
 Red. masses --      1.0934                 1.0958                 1.0945
 Frc consts  --      6.7568                 6.8064                 6.8412
 IR Inten    --     28.7146                 8.1959                 1.8778

                     88                     89                     90
                      A                      A                      A
 Frequencies --   3356.9766              3499.0452              3539.6317
 Red. masses --      1.1014                 1.0765                 1.0867
 Frc consts  --      7.3130                 7.7652                 8.0216
 IR Inten    --     26.3508               231.8873               533.7835

 - Thermochemistry -
 -------------------
 Temperature   298.150 Kelvin.  Pressure   1.00000 Atm.
 Atom     1 has atomic number  8 and mass  15.99491

 Molecular mass:   268.08682 amu.
 Principal axes and moments of inertia in atomic units:
                           1         2         3
     Eigenvalues --  1345.05965********************
           X            0.99959  -0.00242   0.02840
           Y           -0.00163   0.98992   0.14160
           Z           -0.02846  -0.14159   0.98952
 This molecule is an asymmetric top.
 Rotational symmetry number  1.
 Warning -- assumption of classical behavior for rotation
           may cause significant error
 Rotational temperatures (Kelvin)      0.06439     0.00716     0.00695
 Rotational constants (GHZ):           1.34176     0.14920     0.14488
 Zero-point vibrational energy     668672.4 (Joules/Mol)
                                  159.81655 (Kcal/Mol)
 Warning -- explicit consideration of  25 degrees of freedom as
           vibrations may cause significant error
 Vibrational temperatures:     37.94    42.55    59.28   118.03   125.87
          (Kelvin)            141.93   193.73   217.09   289.93   302.15
                              357.12   394.01   398.82   422.68   487.97
                              518.75   553.74   568.49   602.95   657.09
                              680.69   695.79   742.40   771.54   807.90
                              901.86   967.12   982.74   990.68  1009.13
                             1017.50  1028.80  1123.73  1132.15  1175.15
                             1189.09  1230.01  1362.05  1369.72  1422.60
                             1449.32  1466.77  1471.47  1516.40  1538.59
                             1547.43  1599.67  1606.25  1614.67  1627.99
                             1689.75  1721.76  1734.06  1758.18  1760.61
                             1799.68  1853.75  1893.05  1940.00  1956.13
                             1970.47  2022.32  2044.60  2095.01  2113.95
                             2121.52  2163.47  2169.60  2176.81  2186.64
                             2192.52  2203.03  2219.91  2372.18  2381.83
                             2395.25  4408.29  4414.83  4536.53  4538.75
                             4606.70  4616.55  4634.42  4649.60  4659.68
                             4671.54  4686.30  4829.94  5034.35  5092.74

 Zero-point correction=                           0.254684 (Hartree/Particle)
 Thermal correction to Energy=                    0.271457
 Thermal correction to Enthalpy=                  0.272401
 Thermal correction to Gibbs Free Energy=         0.208489
 Sum of electronic and zero-point Energies=          -1211.380103
 Sum of electronic and thermal Energies=             -1211.363330
 Sum of electronic and thermal Enthalpies=           -1211.362386
 Sum of electronic and thermal Free Energies=        -1211.426297

                     E (Thermal)             CV                S
                      KCal/Mol        Cal/Mol-Kelvin    Cal/Mol-Kelvin
 Total                  170.342             63.563            134.513
 Electronic               0.000              0.000              0.000
 Translational            0.889              2.981             42.657
 Rotational               0.889              2.981             33.671
 Vibrational            168.564             57.601             58.184
 Vibration     1          0.593              1.985              6.086
 Vibration     2          0.593              1.984              5.858
 Vibration     3          0.594              1.981              5.200
 Vibration     4          0.600              1.961              3.842
 Vibration     5          0.601              1.958              3.716
 Vibration     6          0.604              1.950              3.481
 Vibration     7          0.613              1.919              2.879
 Vibration     8          0.618              1.902              2.661
 Vibration     9          0.638              1.838              2.119
 Vibration    10          0.642              1.826              2.044
 Vibration    11          0.662              1.766              1.743
 Vibration    12          0.676              1.722              1.572
 Vibration    13          0.678              1.716              1.551
 Vibration    14          0.689              1.685              1.452
 Vibration    15          0.719              1.597              1.216
 Vibration    16          0.735              1.554              1.120
 Vibration    17          0.754              1.502              1.020
 Vibration    18          0.762              1.481              0.981
 Vibration    19          0.782              1.429              0.895
 Vibration    20          0.815              1.346              0.776
 Vibration    21          0.830              1.310              0.729
 Vibration    22          0.840              1.286              0.700
 Vibration    23          0.871              1.215              0.619
 Vibration    24          0.891              1.170              0.573
 Vibration    25          0.917              1.115              0.521

                           ! Non-Optimized Parameters !
 Normal termination of Gaussian 16 at Mon Sep 28 08:35:38 2020.

 ----------------------------------------------------------------------
 #p b3lyp/6-31G(d) scrf=(iefpcm,read,solvent=water) geom=allcheck guess
 =read
 ----------------------------------------------------------------------

 Structure from the checkpoint file:  "SM46_m2.b.2.pdb.xyz.mst.b.w.chk"
 -------------------
 SM46_m2.b.2.pdb.xyz
 -------------------
 Charge =  1 Multiplicity = 1

 SCF Done:  E(RB3LYP) =  -1211.63463051     A.U. after    7 cycles
 Normal termination of Gaussian 16 at Mon Sep 28 08:36:14 2020.

 -----------------------------
 #p B3LYP/6-31G* geom=allcheck
 -----------------------------

 Structure from the checkpoint file:  "SM46_m2.b.2.pdb.xyz.mst.b.w.chk"
 -------------------
 SM46_m2.b.2.pdb.xyz
 -------------------
 Charge =  1 Multiplicity = 1

 SCF Done:  E(RB3LYP) =  -1211.53780523     A.U. after   16 cycles
 Normal termination of Gaussian 16 at Mon Sep 28 08:36:59 2020.
 Gaussian 16:  ES64L-G16RevB.01 20-Dec-2017

 ----------------------------------------------------------------------
 #p mp2/aug-cc-pVDZ scf=(MaxCycle=2000,NoVarAcc,NoIncFock) maxdisk=120G
 B geom=allcheck
 ----------------------------------------------------------------------

 Structure from the checkpoint file:  "SM46_m2.b.2.pdb.xyz.mst.b.w.chk"
 -------------------
 SM46_m2.b.2.pdb.xyz
 -------------------
 Charge =  1 Multiplicity = 1

                         Standard orientation:
 ---------------------------------------------------------------------
 Center     Atomic      Atomic             Coordinates (Angstroms)
 Number     Number       Type             X           Y           Z
 ---------------------------------------------------------------------
      1          8           0        2.433257    1.242604    1.114146
      2         16           0        2.884923   -0.080716    0.693912
      3          7           0        1.637596   -0.654621   -0.366768
      4          6           0        0.350409   -0.167387   -0.284476
      5          7           0        0.009085    1.139111   -0.447352
      6          7           0       -1.290283    1.347728   -0.396061
      7          6           0       -0.855018   -0.823432   -0.126905
      8          7           0       -1.805758    0.146917   -0.214402
      9          6           0       -3.228293   -0.005898   -0.103696
     10          6           0       -3.811867   -1.211324   -0.490451
     11          6           0       -5.193084   -1.352560   -0.370940
     12          6           0       -5.969357   -0.300241    0.118126
     13          6           0       -5.364148    0.901026    0.494627
     14          6           0       -3.984253    1.056779    0.391495
     15          7           0        4.222256    0.096207   -0.252824
     16          6           0        4.924111   -1.135242   -0.658490
     17          6           0        4.143017    1.139437   -1.289914
     18          8           0        3.159039   -1.135688    1.666336
     19          1           0        1.675528   -1.672094   -0.463057
     20          1           0       -1.077775   -1.860409    0.050604
     21          1           0       -3.207272   -2.016008   -0.890270
     22          1           0       -5.659624   -2.284055   -0.669867
     23          1           0       -7.043758   -0.415729    0.206384
     24          1           0       -5.963525    1.717789    0.879672
     25          1           0       -3.496865    1.974661    0.693043
     26          1           0        4.971211   -1.819712    0.185672
     27          1           0        5.937539   -0.848234   -0.942380
     28          1           0        4.437942   -1.622799   -1.511013
     29          1           0        3.710921    2.042096   -0.862036
     30          1           0        3.551628    0.811795   -2.152343
     31          1           0        5.163357    1.352253   -1.611571
     32          1           0        0.624191    1.942228   -0.593694
 ---------------------------------------------------------------------

 SCF Done:  E(RHF) =  -1206.06749621     A.U. after   17 cycles
 E2 =    -0.2801534653D+01 EUMP2 =    -0.12088690308579D+04

 The electronic state is 1-A.
 Alpha  occ. eigenvalues --  -92.38512 -20.70297 -20.69601 -15.88887 -15.86973
 Alpha  occ. eigenvalues --  -15.86547 -15.78451 -15.74258 -11.53120 -11.47292
 Alpha  occ. eigenvalues --  -11.44080 -11.39534 -11.39166 -11.39071 -11.38611
 Alpha  occ. eigenvalues --  -11.37587 -11.37424 -11.37302  -9.34930  -7.03486
 Alpha  occ. eigenvalues --   -7.03442  -7.03377  -1.67585  -1.61113  -1.48398
 Alpha  occ. eigenvalues --   -1.46530  -1.41537  -1.38123  -1.29745  -1.28229
 Alpha  occ. eigenvalues --   -1.19016  -1.16101  -1.10005  -1.09798  -1.08129
 Alpha  occ. eigenvalues --   -1.06046  -0.99336  -0.97218  -0.95236  -0.92723
 Alpha  occ. eigenvalues --   -0.88474  -0.87385  -0.86948  -0.85451  -0.83850
 Alpha  occ. eigenvalues --   -0.81426  -0.81172  -0.79126  -0.76700  -0.76308
 Alpha  occ. eigenvalues --   -0.74519  -0.73613  -0.73257  -0.71444  -0.70217
 Alpha  occ. eigenvalues --   -0.69151  -0.68571  -0.66815  -0.66055  -0.65024
 Alpha  occ. eigenvalues --   -0.64802  -0.63648  -0.63266  -0.61939  -0.61544
 Alpha  occ. eigenvalues --   -0.60548  -0.53683  -0.52344  -0.47379  -0.46983
 Alpha virt. eigenvalues --   -0.08873  -0.07330  -0.05751  -0.04973  -0.04161
 Alpha virt. eigenvalues --   -0.03657  -0.03551  -0.02737  -0.02521  -0.02117
 Alpha virt. eigenvalues --   -0.02015  -0.01335  -0.00943  -0.00655  -0.00396

 Mulliken charges:
               1
     1  O   -1.088136
     2  S    3.027801
     3  N   -0.801742
     4  C    0.181618
     5  N   -0.345693
     6  N   -0.328622
     7  C    1.613191
     8  N   -0.645323
     9  C    0.954710
    10  C    0.184556
    11  C    0.707117
    12  C    0.611906
    13  C    0.585285
    14  C    0.360654
    15  N   -1.116867
    16  C    0.722938
    17  C    0.831175
    18  O   -1.059244
    19  H    0.008584
    20  H   -0.453810
    21  H   -0.639681
    22  H   -0.416868
    23  H   -0.416760
    24  H   -0.410142
    25  H   -0.517573
    26  H   -0.106889
    27  H   -0.130816
    28  H   -0.018809
    29  H   -0.163812
    30  H    0.000237
    31  H   -0.159404
    32  H    0.030420
 Sum of Mulliken charges =   1.00000

 Dipole moment (field-independent basis, Debye):
    X=             -2.8487    Y=             -1.4726    Z=             -5.3813  Tot=              6.2644
 Quadrupole moment (field-independent basis, Debye-Ang):
   XX=            -37.2715   YY=            -95.0977   ZZ=           -117.2679
   XY=              1.9462   XZ=            -19.3628   YZ=              2.7427

 Normal termination of Gaussian 16 at Mon Sep 28 09:50:08 2020.
