 Gaussian 16, Revision B.01,

 ----------------------------------------------------------------------
 #p b3lyp/6-31G(d) opt freq NoSymm scf=(MaxCycle=2000,NoVarAcc,NoIncFoc
 k) scrf=(iefpcm,read,solvent=water)
 ----------------------------------------------------------------------

 -------------------
 SM46_m2.b.8.pdb.xyz
 -------------------
 Symbolic Z-matrix:
 Charge =  1 Multiplicity = 1

 SCF Done:  E(RB3LYP) =  -1211.63601275     A.U. after   13 cycles
 SCF Done:  E(RB3LYP) =  -1211.63601562     A.U. after    8 cycles
 SCF Done:  E(RB3LYP) =  -1211.63601601     A.U. after    7 cycles
 SCF Done:  E(RB3LYP) =  -1211.63601673     A.U. after    6 cycles
 Optimization completed.
    -- Stationary point found.
 Normal termination of Gaussian 16 at Mon Sep 28 08:26:47 2020.

 --------------------------------------------------------------------
 #P Geom=AllCheck Guess=TCheck SCRF=Check GenChk RB3LYP/6-31G(d) Freq
 --------------------------------------------------------------------

 Structure from the checkpoint file:  "SM46_m2.b.8.pdb.xyz.mst.b.w.chk"
 -------------------
 SM46_m2.b.8.pdb.xyz
 -------------------
 Charge =  1 Multiplicity = 1

 SCF Done:  E(RB3LYP) =  -1211.63601673     A.U. after    1 cycles

  Exact polarizability: 297.246 -13.462 209.120   6.701 -28.441 131.129
 Approx polarizability: 315.248 -11.035 258.871  11.856 -33.326 151.603

                      1                      2                      3
                      A                      A                      A
 Frequencies --     30.1842                33.8934                58.0326
 Red. masses --      3.9495                 4.6677                 4.3430
 Frc consts  --      0.0021                 0.0032                 0.0086
 IR Inten    --      1.7793                 1.9673                 4.3552

                      4                      5                      6
                      A                      A                      A
 Frequencies --     68.6565                84.7998               101.0624
 Red. masses --      5.0811                 3.9090                 4.2237
 Frc consts  --      0.0141                 0.0166                 0.0254
 IR Inten    --      0.9923                 1.6076                 0.9264

                      7                      8                      9
                      A                      A                      A
 Frequencies --    161.0274               166.3936               197.5273
 Red. masses --      5.4581                 3.2356                 1.1489
 Frc consts  --      0.0834                 0.0528                 0.0264
 IR Inten    --      6.4733                 1.5206                 0.9563

                     10                     11                     12
                      A                      A                      A
 Frequencies --    235.2356               254.8708               268.6389
 Red. masses --      1.6089                 2.4136                 6.8849
 Frc consts  --      0.0525                 0.0924                 0.2927
 IR Inten    --      1.7506                 0.9626                 3.3470

                     13                     14                     15
                      A                      A                      A
 Frequencies --    284.7522               302.5896               329.5861
 Red. masses --      3.4106                 6.4673                 3.5910
 Frc consts  --      0.1629                 0.3489                 0.2298
 IR Inten    --      5.4032                 3.2970                31.6935

                     16                     17                     18
                      A                      A                      A
 Frequencies --    366.4094               378.1605               385.5335
 Red. masses --      3.2432                 5.5793                 4.3966
 Frc consts  --      0.2565                 0.4701                 0.3850
 IR Inten    --     35.0600                 1.4212                19.8145

                     19                     20                     21
                      A                      A                      A
 Frequencies --    418.2522               436.0517               457.1549
 Red. masses --      3.0004                 1.8763                 3.5365
 Frc consts  --      0.3092                 0.2102                 0.4355
 IR Inten    --      0.0662               129.3990                38.7335

                     22                     23                     24
                      A                      A                      A
 Frequencies --    484.8235               493.0480               532.5992
 Red. masses --      5.4569                 5.3366                 4.0673
 Frc consts  --      0.7557                 0.7644                 0.6798
 IR Inten    --     52.7969                20.5721                27.5336

                     25                     26                     27
                      A                      A                      A
 Frequencies --    548.3080               626.5808               651.1540
 Red. masses --     10.3624                 6.3312                 1.3073
 Frc consts  --      1.8355                 1.4645                 0.3266
 IR Inten    --    213.6150                 0.4925               120.6014

                     28                     29                     30
                      A                      A                      A
 Frequencies --    672.6984               689.1863               696.0055
 Red. masses --      3.6127                 6.8186                 6.3236
 Frc consts  --      0.9632                 1.9082                 1.8048
 IR Inten    --     42.1294               241.2029                78.9617

                     31                     32                     33
                      A                      A                      A
 Frequencies --    699.8233               704.7760               772.9779
 Red. masses --      2.2435                 3.6354                 3.4166
 Frc consts  --      0.6474                 1.0639                 1.2028
 IR Inten    --     42.1587                 0.4064                91.9981

                     34                     35                     36
                      A                      A                      A
 Frequencies --    779.7666               796.3023               839.1928
 Red. masses --      1.5348                 1.8502                 4.9099
 Frc consts  --      0.5498                 0.6912                 2.0373
 IR Inten    --     99.6893                15.4754               224.7112

                     37                     38                     39
                      A                      A                      A
 Frequencies --    855.4663               946.9736               955.6275
 Red. masses --      1.2623                 1.3654                 3.0731
 Frc consts  --      0.5443                 0.7214                 1.6535
 IR Inten    --      1.6247                 6.0925               169.5299

                     40                     41                     42
                      A                      A                      A
 Frequencies --    988.1309              1008.5822              1019.0622
 Red. masses --      1.3479                 7.9727                 1.2848
 Frc consts  --      0.7754                 4.7784                 0.7861
 IR Inten    --      0.5235                17.6279                 0.2029

                     43                     44                     45
                      A                      A                      A
 Frequencies --   1022.6349              1053.0556              1069.2334
 Red. masses --      6.3199                 2.1212                 2.1047
 Frc consts  --      3.8941                 1.3859                 1.4177
 IR Inten    --      1.1205                 4.7950                78.5395

                     46                     47                     48
                      A                      A                      A
 Frequencies --   1072.5948              1107.8028              1110.8350
 Red. masses --      1.5604                 3.5605                 1.5460
 Frc consts  --      1.0577                 2.5745                 1.1240
 IR Inten    --     23.5788                 9.1459                38.8626

                     49                     50                     51
                      A                      A                      A
 Frequencies --   1122.2873              1135.6190              1174.9740
 Red. masses --     11.1139                 1.2162                 1.3536
 Frc consts  --      8.2476                 0.9241                 1.1010
 IR Inten    --    327.6439                 2.0453                 1.5070

                     52                     53                     54
                      A                      A                      A
 Frequencies --   1194.0719              1199.1611              1207.4281
 Red. masses --      1.1008                 1.2849                 1.7775
 Frc consts  --      0.9247                 1.0886                 1.5268
 IR Inten    --      0.6002                21.5664                62.9583

                     55                     56                     57
                      A                      A                      A
 Frequencies --   1227.0387              1237.6837              1289.9632
 Red. masses --      3.7031                 2.6250                 1.9917
 Frc consts  --      3.2850                 2.3692                 1.9527
 IR Inten    --     32.2039                 3.1311                35.7886

                     58                     59                     60
                      A                      A                      A
 Frequencies --   1307.3520              1343.7196              1349.2477
 Red. masses --      3.1696                 2.7270                 3.2211
 Frc consts  --      3.1919                 2.9010                 3.4549
 IR Inten    --     62.0128               101.8835               209.1403

                     61                     62                     63
                      A                      A                      A
 Frequencies --   1368.2166              1401.1208              1424.0758
 Red. masses --      4.0991                 2.6881                 2.1598
 Frc consts  --      4.5212                 3.1092                 2.5806
 IR Inten    --      3.4910                 0.3444               139.3183

                     64                     65                     66
                      A                      A                      A
 Frequencies --   1456.2636              1460.0433              1474.8050
 Red. masses --      3.8337                 1.1538                 1.1543
 Frc consts  --      4.7901                 1.4492                 1.4793
 IR Inten    --     10.8517                 1.1462                 0.9108

                     67                     68                     69
                      A                      A                      A
 Frequencies --   1505.3764              1506.9262              1515.4974
 Red. masses --      1.1703                 1.8181                 1.0537
 Frc consts  --      1.5625                 2.4325                 1.4259
 IR Inten    --     13.4392                 7.6263                50.4105

                     70                     71                     72
                      A                      A                      A
 Frequencies --   1522.4837              1532.6550              1536.5916
 Red. masses --      1.0461                 2.6202                 1.0700
 Frc consts  --      1.4287                 3.6263                 1.4884
 IR Inten    --     18.6912               164.3840                21.3103

                     73                     74                     75
                      A                      A                      A
 Frequencies --   1542.6055              1649.6935              1654.5609
 Red. masses --      2.4680                 5.9847                 5.6996
 Frc consts  --      3.4602                 9.5962                 9.1930
 IR Inten    --     25.1422               434.7156                46.8132

                     76                     77                     78
                      A                      A                      A
 Frequencies --   1664.1841              3064.8086              3068.6913
 Red. masses --      6.0839                 1.0427                 1.0435
 Frc consts  --      9.9275                 5.7706                 5.7896
 IR Inten    --    253.0627                36.3315                64.9329

                     79                     80                     81
                      A                      A                      A
 Frequencies --   3149.3733              3152.6432              3206.0238
 Red. masses --      1.0956                 1.0972                 1.1026
 Frc consts  --      6.4025                 6.4252                 6.6771
 IR Inten    --     38.0966                 6.8530                 5.1998

                     82                     83                     84
                      A                      A                      A
 Frequencies --   3207.9690              3220.7658              3230.4537
 Red. masses --      1.1025                 1.0868                 1.0898
 Frc consts  --      6.6846                 6.6424                 6.7005
 IR Inten    --      4.6679                 0.3275                12.1959

                     85                     86                     87
                      A                      A                      A
 Frequencies --   3237.4852              3244.5827              3256.4390
 Red. masses --      1.0933                 1.0966                 1.0941
 Frc consts  --      6.7517                 6.8017                 6.8360
 IR Inten    --     28.0057                10.7607                 1.4179

                     88                     89                     90
                      A                      A                      A
 Frequencies --   3382.2324              3511.2365              3521.2638
 Red. masses --      1.1007                 1.0778                 1.0867
 Frc consts  --      7.4188                 7.8288                 7.9389
 IR Inten    --     34.2078               129.7801               683.5581

 - Thermochemistry -
 -------------------
 Temperature   298.150 Kelvin.  Pressure   1.00000 Atm.
 Atom     1 has atomic number  8 and mass  15.99491

 Molecular mass:   268.08682 amu.
 Principal axes and moments of inertia in atomic units:
                           1         2         3
     Eigenvalues --  1834.03570********************
           X            0.99997  -0.00733  -0.00387
           Y            0.00826   0.91584   0.40147
           Z            0.00061  -0.40149   0.91587
 This molecule is an asymmetric top.
 Rotational symmetry number  1.
 Warning -- assumption of classical behavior for rotation
           may cause significant error
 Rotational temperatures (Kelvin)      0.04723     0.00843     0.00797
 Rotational constants (GHZ):           0.98403     0.17559     0.16615
 Zero-point vibrational energy     667956.9 (Joules/Mol)
                                  159.64553 (Kcal/Mol)
 Warning -- explicit consideration of  25 degrees of freedom as
           vibrations may cause significant error
 Vibrational temperatures:     43.43    48.77    83.50    98.78   122.01
          (Kelvin)            145.41   231.68   239.40   284.20   338.45
                              366.70   386.51   409.69   435.36   474.20
                              527.18   544.09   554.70   601.77   627.38
                              657.74   697.55   709.39   766.29   788.89
                              901.51   936.87   967.86   991.59  1001.40
                             1006.89  1014.02  1112.14  1121.91  1145.70
                             1207.41  1230.83  1362.48  1374.93  1421.70
                             1451.12  1466.20  1471.34  1515.11  1538.39
                             1543.22  1593.88  1598.24  1614.72  1633.90
                             1690.53  1718.00  1725.33  1737.22  1765.44
                             1780.75  1855.97  1880.99  1933.31  1941.27
                             1968.56  2015.90  2048.93  2095.24  2100.68
                             2121.92  2165.90  2168.13  2180.46  2190.51
                             2205.15  2210.81  2219.47  2373.54  2380.54
                             2394.39  4409.58  4415.16  4531.25  4535.95
                             4612.75  4615.55  4633.96  4647.90  4658.02
                             4668.23  4685.29  4866.28  5051.89  5066.31

 Zero-point correction=                           0.254411 (Hartree/Particle)
 Thermal correction to Energy=                    0.271144
 Thermal correction to Enthalpy=                  0.272088
 Thermal correction to Gibbs Free Energy=         0.208778
 Sum of electronic and zero-point Energies=          -1211.381605
 Sum of electronic and thermal Energies=             -1211.364873
 Sum of electronic and thermal Enthalpies=           -1211.363929
 Sum of electronic and thermal Free Energies=        -1211.427239

                     E (Thermal)             CV                S
                      KCal/Mol        Cal/Mol-Kelvin    Cal/Mol-Kelvin
 Total                  170.145             63.836            133.248
 Electronic               0.000              0.000              0.000
 Translational            0.889              2.981             42.657
 Rotational               0.889              2.981             33.681
 Vibrational            168.368             57.874             56.909
 Vibration     1          0.594              1.984              5.817
 Vibration     2          0.594              1.983              5.587
 Vibration     3          0.596              1.974              4.523
 Vibration     4          0.598              1.969              4.192
 Vibration     5          0.601              1.960              3.777
 Vibration     6          0.604              1.948              3.434
 Vibration     7          0.622              1.890              2.538
 Vibration     8          0.624              1.884              2.476
 Vibration     9          0.637              1.843              2.156
 Vibration    10          0.655              1.787              1.839
 Vibration    11          0.665              1.755              1.697
 Vibration    12          0.673              1.731              1.605
 Vibration    13          0.683              1.702              1.505
 Vibration    14          0.694              1.669              1.403
 Vibration    15          0.712              1.616              1.262
 Vibration    16          0.739              1.541              1.095
 Vibration    17          0.748              1.517              1.047
 Vibration    18          0.754              1.501              1.017
 Vibration    19          0.781              1.431              0.898
 Vibration    20          0.797              1.392              0.839
 Vibration    21          0.815              1.345              0.774
 Vibration    22          0.841              1.284              0.697
 Vibration    23          0.849              1.265              0.676
 Vibration    24          0.888              1.178              0.581
 Vibration    25          0.904              1.143              0.548

 Optimization completed.
    -- Stationary point found.
 Normal termination of Gaussian 16 at Mon Sep 28 08:36:25 2020.

 ----------------------------------------------------------------------
 #p b3lyp/6-31G(d) scrf=(iefpcm,read,solvent=water) geom=allcheck guess
 =read
 ----------------------------------------------------------------------

 Structure from the checkpoint file:  "SM46_m2.b.8.pdb.xyz.mst.b.w.chk"
 -------------------
 SM46_m2.b.8.pdb.xyz
 -------------------
 Charge =  1 Multiplicity = 1

 SCF Done:  E(RB3LYP) =  -1211.63590247     A.U. after    7 cycles
 Normal termination of Gaussian 16 at Mon Sep 28 08:37:01 2020.

 -----------------------------
 #p B3LYP/6-31G* geom=allcheck
 -----------------------------

 Structure from the checkpoint file:  "SM46_m2.b.8.pdb.xyz.mst.b.w.chk"
 -------------------
 SM46_m2.b.8.pdb.xyz
 -------------------
 Charge =  1 Multiplicity = 1

 SCF Done:  E(RB3LYP) =  -1211.53201021     A.U. after   16 cycles
 Normal termination of Gaussian 16 at Mon Sep 28 08:37:47 2020.
 Gaussian 16:  ES64L-G16RevB.01 20-Dec-2017

 ----------------------------------------------------------------------
 #p mp2/aug-cc-pVDZ scf=(MaxCycle=2000,NoVarAcc,NoIncFock) maxdisk=120G
 B geom=allcheck
 ----------------------------------------------------------------------

 Structure from the checkpoint file:  "SM46_m2.b.8.pdb.xyz.mst.b.w.chk"
 -------------------
 SM46_m2.b.8.pdb.xyz
 -------------------
 Charge =  1 Multiplicity = 1

                         Standard orientation:
 ---------------------------------------------------------------------
 Center     Atomic      Atomic             Coordinates (Angstroms)
 Number     Number       Type             X           Y           Z
 ---------------------------------------------------------------------
      1          8           0       -3.955169    0.213342   -1.520448
      2         16           0       -2.834098   -0.274273   -0.727212
      3          7           0       -1.860412    1.123739   -0.509365
      4          6           0       -0.528163    1.068111   -0.182781
      5          7           0        0.114864    2.070270    0.472221
      6          7           0        1.409953    1.849930    0.628148
      7          6           0        0.461816    0.139394   -0.455416
      8          7           0        1.600463    0.674040    0.065468
      9          6           0        2.913857    0.098876    0.037946
     10          6           0        3.040324   -1.289259    0.007364
     11          6           0        4.318729   -1.842360   -0.031129
     12          6           0        5.443959   -1.016102   -0.029677
     13          6           0        5.294423    0.372355    0.006349
     14          6           0        4.024234    0.942907    0.034945
     15          7           0       -3.441943   -0.813823    0.710545
     16          6           0       -2.503959   -1.446507    1.651520
     17          6           0       -4.500946   -0.008233    1.337189
     18          8           0       -1.903554   -1.282866   -1.225210
     19          1           0       -2.375764    1.951988   -0.206951
     20          1           0        0.421918   -0.798004   -0.975579
     21          1           0        2.163549   -1.924959    0.029269
     22          1           0        4.431070   -2.920124   -0.053129
     23          1           0        6.435709   -1.453076   -0.057325
     24          1           0        6.166304    1.016237    0.001482
     25          1           0        3.890191    2.016635    0.044998
     26          1           0       -1.791116   -2.056292    1.100281
     27          1           0       -3.091932   -2.091186    2.306912
     28          1           0       -1.974827   -0.705944    2.260821
     29          1           0       -5.192815    0.341794    0.574466
     30          1           0       -4.094314    0.842947    1.894353
     31          1           0       -5.035187   -0.662099    2.028084
     32          1           0       -0.283563    2.942472    0.825995
 ---------------------------------------------------------------------

 SCF Done:  E(RHF) =  -1206.06084817     A.U. after   17 cycles
 E2 =    -0.2803068111D+01 EUMP2 =    -0.12088639162813D+04

 The electronic state is 1-A.
 Alpha  occ. eigenvalues --  -92.38777 -20.70028 -20.69227 -15.89265 -15.87452
 Alpha  occ. eigenvalues --  -15.86218 -15.78997 -15.74700 -11.53700 -11.46524
 Alpha  occ. eigenvalues --  -11.44093 -11.40108 -11.39556 -11.39180 -11.38759
 Alpha  occ. eigenvalues --  -11.37600 -11.37497 -11.37389  -9.35116  -7.03679
 Alpha  occ. eigenvalues --   -7.03645  -7.03576  -1.67667  -1.61150  -1.48324
 Alpha  occ. eigenvalues --   -1.47239  -1.41618  -1.38413  -1.29829  -1.28422
 Alpha  occ. eigenvalues --   -1.19258  -1.16154  -1.10552  -1.09773  -1.08878
 Alpha  occ. eigenvalues --   -1.05936  -0.98885  -0.97551  -0.96585  -0.93995
 Alpha  occ. eigenvalues --   -0.88068  -0.87343  -0.87019  -0.86771  -0.83192
 Alpha  occ. eigenvalues --   -0.81213  -0.80645  -0.79026  -0.77159  -0.76692
 Alpha  occ. eigenvalues --   -0.74547  -0.73881  -0.73278  -0.72088  -0.70840
 Alpha  occ. eigenvalues --   -0.69768  -0.69050  -0.66745  -0.66388  -0.65076
 Alpha  occ. eigenvalues --   -0.64549  -0.63666  -0.63195  -0.61973  -0.61482
 Alpha  occ. eigenvalues --   -0.60494  -0.55197  -0.50769  -0.47414  -0.47118
 Alpha virt. eigenvalues --   -0.09186  -0.08508  -0.05659  -0.05214  -0.04413
 Alpha virt. eigenvalues --   -0.03648  -0.03560  -0.02966  -0.02813  -0.02124
 Alpha virt. eigenvalues --   -0.01993  -0.01526  -0.00961  -0.00695  -0.00100

 Mulliken charges:
               1
     1  O   -1.020355
     2  S    2.888427
     3  N   -0.681100
     4  C    0.585580
     5  N   -0.433601
     6  N   -0.268586
     7  C    1.331391
     8  N   -0.646891
     9  C    1.024346
    10  C    0.350999
    11  C    0.541311
    12  C    0.601321
    13  C    0.516081
    14  C    0.514452
    15  N   -1.033754
    16  C    0.860630
    17  C    0.696106
    18  O   -1.091352
    19  H   -0.104666
    20  H   -0.559551
    21  H   -0.634556
    22  H   -0.420899
    23  H   -0.417052
    24  H   -0.412514
    25  H   -0.522694
    26  H   -0.149782
    27  H   -0.176730
    28  H   -0.042737
    29  H   -0.126114
    30  H   -0.041755
    31  H   -0.121423
    32  H   -0.004534
 Sum of Mulliken charges =   1.00000

 Dipole moment (field-independent basis, Debye):
    X=              3.1314    Y=              3.9709    Z=              5.4106  Tot=              7.4060
 Quadrupole moment (field-independent basis, Debye-Ang):
   XX=            -59.3502   YY=            -87.0297   ZZ=           -114.8311
   XY=             -9.3881   XZ=            -20.4458   YZ=             -0.3517

 Normal termination of Gaussian 16 at Mon Sep 28 10:00:17 2020.
