 Gaussian 16, Revision B.01,

 ----------------------------------------------------------------------
 #p b3lyp/6-31G(d) opt freq NoSymm scf=(MaxCycle=2000,NoVarAcc,NoIncFoc
 k) scrf=(iefpcm,read,solvent=water)
 ----------------------------------------------------------------------

 -------------------
 SM42_m2.b.2.pdb.xyz
 -------------------
 Symbolic Z-matrix:
 Charge =  1 Multiplicity = 1

 SCF Done:  E(RB3LYP) =  -1312.53184065     A.U. after   13 cycles
 SCF Done:  E(RB3LYP) =  -1312.53166373     A.U. after   10 cycles
 SCF Done:  E(RB3LYP) =  -1312.53173658     A.U. after    9 cycles
 SCF Done:  E(RB3LYP) =  -1312.53183753     A.U. after    9 cycles
 SCF Done:  E(RB3LYP) =  -1312.53184223     A.U. after    8 cycles
 SCF Done:  E(RB3LYP) =  -1312.53173180     A.U. after   10 cycles
 SCF Done:  E(RB3LYP) =  -1312.53173196     A.U. after    8 cycles
 SCF Done:  E(RB3LYP) =  -1312.53183554     A.U. after   10 cycles
 SCF Done:  E(RB3LYP) =  -1312.53184182     A.U. after    8 cycles
 SCF Done:  E(RB3LYP) =  -1312.53184222     A.U. after    7 cycles
 SCF Done:  E(RB3LYP) =  -1312.53172729     A.U. after   10 cycles
 SCF Done:  E(RB3LYP) =  -1312.53172110     A.U. after    9 cycles
 SCF Done:  E(RB3LYP) =  -1312.53183341     A.U. after   10 cycles
 SCF Done:  E(RB3LYP) =  -1312.53184111     A.U. after    9 cycles
 SCF Done:  E(RB3LYP) =  -1312.53171900     A.U. after   10 cycles
 SCF Done:  E(RB3LYP) =  -1312.53171899     A.U. after    7 cycles
 Optimization completed on the basis of negligible forces.
    -- Stationary point found.
 Normal termination of Gaussian 16 at Thu Sep 24 06:44:51 2020.

 --------------------------------------------------------------------
 #P Geom=AllCheck Guess=TCheck SCRF=Check GenChk RB3LYP/6-31G(d) Freq
 --------------------------------------------------------------------

 Structure from the checkpoint file:  "SM42_m2.b.2.pdb.xyz.mst.b.w.chk"
 -------------------
 SM42_m2.b.2.pdb.xyz
 -------------------
 Charge =  1 Multiplicity = 1

 SCF Done:  E(RB3LYP) =  -1312.53171899     A.U. after    1 cycles

  Exact polarizability: 371.282 -38.393 205.426  41.433 -19.330 228.350
 Approx polarizability: 397.146 -52.445 239.216  47.423 -22.484 284.180

                      1                      2                      3
                      A                      A                      A
 Frequencies --     12.8006                28.4647                43.6654
 Red. masses --      5.7044                 3.9772                 6.3766
 Frc consts  --      0.0006                 0.0019                 0.0072
 IR Inten    --      0.5387                 0.0840                 0.6763

                      4                      5                      6
                      A                      A                      A
 Frequencies --     48.8656                73.7428                91.2044
 Red. masses --      4.2574                 7.1241                 5.1272
 Frc consts  --      0.0060                 0.0228                 0.0251
 IR Inten    --      0.3652                 5.6261                 0.2967

                      7                      8                      9
                      A                      A                      A
 Frequencies --    119.8837               157.7182               171.6605
 Red. masses --      5.8096                 6.9697                 5.9933
 Frc consts  --      0.0492                 0.1021                 0.1041
 IR Inten    --      7.4048                 7.9533                 1.5077

                     10                     11                     12
                      A                      A                      A
 Frequencies --    211.5439               255.4966               259.1362
 Red. masses --      4.8476                 9.7173                 3.9495
 Frc consts  --      0.1278                 0.3737                 0.1563
 IR Inten    --      8.6467                 1.9228                42.6606

                     13                     14                     15
                      A                      A                      A
 Frequencies --    276.8214               295.8684               305.1308
 Red. masses --      3.9119                 7.0874                 8.8020
 Frc consts  --      0.1766                 0.3655                 0.4828
 IR Inten    --     28.6019                 7.7811                 4.6497

                     16                     17                     18
                      A                      A                      A
 Frequencies --    359.4007               408.3623               409.8097
 Red. masses --      7.7140                 2.9322                 5.5264
 Frc consts  --      0.5871                 0.2881                 0.5468
 IR Inten    --      8.2369                 0.6907                 6.7568

                     19                     20                     21
                      A                      A                      A
 Frequencies --    415.7493               421.5938               458.3057
 Red. masses --      3.4225                 1.6759                 4.6444
 Frc consts  --      0.3485                 0.1755                 0.5748
 IR Inten    --      2.0949                78.1289                12.1773

                     22                     23                     24
                      A                      A                      A
 Frequencies --    473.4752               493.4972               502.5447
 Red. masses --      5.0497                 2.6342                 1.3461
 Frc consts  --      0.6670                 0.3780                 0.2003
 IR Inten    --      4.8120                 1.9869               260.9687

                     25                     26                     27
                      A                      A                      A
 Frequencies --    534.5205               571.7313               624.3867
 Red. masses --      9.2623                10.6326                 6.4528
 Frc consts  --      1.5592                 2.0477                 1.4822
 IR Inten    --    163.8324               423.6931                 0.0578

                     28                     29                     30
                      A                      A                      A
 Frequencies --    629.4919               650.7157               687.3452
 Red. masses --      6.4575                 5.8840                 6.5846
 Frc consts  --      1.5076                 1.4679                 1.8328
 IR Inten    --      0.4201                17.0875                23.1725

                     31                     32                     33
                      A                      A                      A
 Frequencies --    694.6889               699.9676               706.6871
 Red. masses --      2.6158                 1.9134                 3.2811
 Frc consts  --      0.7438                 0.5523                 0.9654
 IR Inten    --     36.7520                36.0152                25.2880

                     34                     35                     36
                      A                      A                      A
 Frequencies --    721.7120               761.4760               767.2671
 Red. masses --      6.7200                 3.2338                 1.6434
 Frc consts  --      2.0623                 1.1048                 0.5700
 IR Inten    --     60.0075               101.5868                 8.3305

                     37                     38                     39
                      A                      A                      A
 Frequencies --    790.0849               831.5150               841.3731
 Red. masses --      1.7880                 4.0035                 1.6241
 Frc consts  --      0.6576                 1.6309                 0.6774
 IR Inten    --     57.7598               222.5765               111.2695

                     40                     41                     42
                      A                      A                      A
 Frequencies --    859.3710               861.1083               949.7396
 Red. masses --      1.2446                 1.2550                 6.9859
 Frc consts  --      0.5416                 0.5483                 3.7127
 IR Inten    --      0.6058                 1.4337                39.6985

                     43                     44                     45
                      A                      A                      A
 Frequencies --    953.8658               954.9632               987.8131
 Red. masses --      1.3180                 1.3765                 1.3572
 Frc consts  --      0.7065                 0.7396                 0.7803
 IR Inten    --      0.6109                 2.4743                 0.0190

                     46                     47                     48
                      A                      A                      A
 Frequencies --    991.1508              1012.7817              1017.3073
 Red. masses --      1.3543                 6.4966                 5.9978
 Frc consts  --      0.7839                 3.9262                 3.6572
 IR Inten    --      0.0976                 8.1025                 4.4846

                     49                     50                     51
                      A                      A                      A
 Frequencies --   1021.0775              1024.6201              1038.0266
 Red. masses --      1.2888                 1.2988                 5.2684
 Frc consts  --      0.7917                 0.8034                 3.3446
 IR Inten    --      0.0174                 0.4329                20.0252

                     52                     53                     54
                      A                      A                      A
 Frequencies --   1046.8245              1049.8179              1067.7023
 Red. masses --      3.2312                 2.7749                 1.7828
 Frc consts  --      2.0862                 1.8019                 1.1974
 IR Inten    --      6.7222                12.8998                38.3295

                     55                     56                     57
                      A                      A                      A
 Frequencies --   1081.3517              1113.3775              1114.2706
 Red. masses --      2.9501                 1.5423                 1.5835
 Frc consts  --      2.0324                 1.1265                 1.1584
 IR Inten    --     89.8746                12.2266                20.5028

                     58                     59                     60
                      A                      A                      A
 Frequencies --   1135.8183              1157.6943              1194.7862
 Red. masses --      6.6852                 5.5223                 1.0979
 Frc consts  --      5.0814                 4.3607                 0.9234
 IR Inten    --    371.3580                38.9831                 1.1331

                     61                     62                     63
                      A                      A                      A
 Frequencies --   1195.8651              1207.3828              1207.7160
 Red. masses --      1.0947                 1.1588                 1.1564
 Frc consts  --      0.9224                 0.9953                 0.9937
 IR Inten    --      0.4278                 9.6548                21.7574

                     64                     65                     66
                      A                      A                      A
 Frequencies --   1233.5130              1269.5049              1324.0774
 Red. masses --      1.8272                 2.8747                 7.9820
 Frc consts  --      1.6380                 2.7296                 8.2450
 IR Inten    --     33.3818                 5.8209               207.1126

                     67                     68                     69
                      A                      A                      A
 Frequencies --   1345.1637              1349.6792              1366.8921
 Red. masses --      1.5000                 2.1319                 4.8675
 Frc consts  --      1.5991                 2.2881                 5.3583
 IR Inten    --      2.0039               100.1708                 4.6641

                     70                     71                     72
                      A                      A                      A
 Frequencies --   1372.7957              1382.6181              1433.8878
 Red. masses --      2.6165                 1.9044                 2.1203
 Frc consts  --      2.9052                 2.1449                 2.5685
 IR Inten    --      3.5541                68.7681               598.7114

                     73                     74                     75
                      A                      A                      A
 Frequencies --   1493.6386              1494.3440              1520.7416
 Red. masses --      2.2794                 2.2003                 2.1281
 Frc consts  --      2.9961                 2.8949                 2.8997
 IR Inten    --     17.8881                55.7752               147.6557

                     76                     77                     78
                      A                      A                      A
 Frequencies --   1521.0840              1540.5078              1601.8392
 Red. masses --      2.2992                 2.4013                 5.6961
 Frc consts  --      3.1342                 3.3576                 8.6112
 IR Inten    --    356.6549                97.2203                18.9179

                     79                     80                     81
                      A                      A                      A
 Frequencies --   1635.9128              1639.1459              1644.4728
 Red. masses --      5.1665                 5.4158                 5.8289
 Frc consts  --      8.1465                 8.5733                 9.2873
 IR Inten    --    605.9166                 8.6425                 1.1364

                     82                     83                     84
                      A                      A                      A
 Frequencies --   1648.0895              1660.6465              3216.0933
 Red. masses --      6.1509                 5.5366                 1.0863
 Frc consts  --      9.8435                 8.9960                 6.6199
 IR Inten    --    593.0861                50.8264                 0.5053

                     85                     86                     87
                      A                      A                      A
 Frequencies --   3221.7901              3223.5991              3230.5959
 Red. masses --      1.0869                 1.0886                 1.0922
 Frc consts  --      6.6474                 6.6647                 6.7162
 IR Inten    --      1.3052                 4.2198                27.2830

                     88                     89                     90
                      A                      A                      A
 Frequencies --   3231.9712              3238.1766              3239.6573
 Red. masses --      1.0901                 1.0953                 1.0940
 Frc consts  --      6.7088                 6.7665                 6.7650
 IR Inten    --     14.8949                28.6863                18.6487

                     91                     92                     93
                      A                      A                      A
 Frequencies --   3243.5156              3250.9038              3254.2536
 Red. masses --      1.0965                 1.0943                 1.0941
 Frc consts  --      6.7964                 6.8138                 6.8267
 IR Inten    --     13.0331                 7.2834                 4.2782

                     94                     95                     96
                      A                      A                      A
 Frequencies --   3357.5150              3508.9134              3553.4284
 Red. masses --      1.0986                 1.0779                 1.0874
 Frc consts  --      7.2964                 7.8193                 8.0898
 IR Inten    --     28.3760               262.1739               759.8286

 - Thermochemistry -
 -------------------
 Temperature   298.150 Kelvin.  Pressure   1.00000 Atm.
 Atom     1 has atomic number  8 and mass  15.99491

 Molecular mass:   301.06469 amu.
 Principal axes and moments of inertia in atomic units:
                           1         2         3
     Eigenvalues --  3171.96475********************
           X            0.99926  -0.03806   0.00582
           Y            0.03658   0.98560   0.16508
           Z           -0.01202  -0.16475   0.98626
 This molecule is an asymmetric top.
 Rotational symmetry number  1.
 Warning -- assumption of classical behavior for rotation
           may cause significant error
 Rotational temperatures (Kelvin)      0.02731     0.00663     0.00623
 Rotational constants (GHZ):           0.56897     0.13815     0.12972
 Zero-point vibrational energy     683672.4 (Joules/Mol)
                                  163.40163 (Kcal/Mol)
 Warning -- explicit consideration of  26 degrees of freedom as
           vibrations may cause significant error
 Vibrational temperatures:     18.42    40.95    62.82    70.31   106.10
          (Kelvin)            131.22   172.49   226.92   246.98   304.36
                              367.60   372.84   398.28   425.69   439.02
                              517.10   587.54   589.62   598.17   606.58
                              659.40   681.23   710.03   723.05   769.06
                              822.59   898.35   905.70   936.23   988.94
                              999.50  1007.10  1016.77  1038.38  1095.59
                             1103.93  1136.76  1196.36  1210.55  1236.44
                             1238.94  1366.46  1372.40  1373.98  1421.24
                             1426.04  1457.17  1463.68  1469.10  1474.20
                             1493.49  1506.15  1510.45  1536.19  1555.82
                             1601.90  1603.19  1634.19  1665.66  1719.03
                             1720.58  1737.15  1737.63  1774.75  1826.53
                             1905.05  1935.39  1941.89  1966.65  1975.15
                             1989.28  2063.04  2149.01  2150.03  2188.01
                             2188.50  2216.45  2304.69  2353.71  2358.37
                             2366.03  2371.23  2389.30  4627.24  4635.44
                             4638.04  4648.11  4650.09  4659.01  4661.14
                             4666.70  4677.33  4682.15  4830.72  5048.54
                             5112.59

 Zero-point correction=                           0.260397 (Hartree/Particle)
 Thermal correction to Energy=                    0.278115
 Thermal correction to Enthalpy=                  0.279060
 Thermal correction to Gibbs Free Energy=         0.211887
 Sum of electronic and zero-point Energies=          -1312.271322
 Sum of electronic and thermal Energies=             -1312.253604
 Sum of electronic and thermal Enthalpies=           -1312.252659
 Sum of electronic and thermal Free Energies=        -1312.319832

                     E (Thermal)             CV                S
                      KCal/Mol        Cal/Mol-Kelvin    Cal/Mol-Kelvin
 Total                  174.520             68.783            141.376
 Electronic               0.000              0.000              0.000
 Translational            0.889              2.981             43.003
 Rotational               0.889              2.981             34.710
 Vibrational            172.743             62.821             63.662
 Vibration     1          0.593              1.987              7.521
 Vibration     2          0.593              1.984              5.934
 Vibration     3          0.595              1.980              5.085
 Vibration     4          0.595              1.978              4.863
 Vibration     5          0.599              1.966              4.051
 Vibration     6          0.602              1.955              3.634
 Vibration     7          0.609              1.933              3.102
 Vibration     8          0.621              1.894              2.577
 Vibration     9          0.626              1.877              2.417
 Vibration    10          0.643              1.823              2.030
 Vibration    11          0.666              1.754              1.692
 Vibration    12          0.668              1.747              1.668
 Vibration    13          0.678              1.716              1.553
 Vibration    14          0.690              1.681              1.440
 Vibration    15          0.696              1.664              1.389
 Vibration    16          0.734              1.556              1.125
 Vibration    17          0.773              1.452              0.932
 Vibration    18          0.774              1.449              0.927
 Vibration    19          0.779              1.436              0.907
 Vibration    20          0.784              1.423              0.887
 Vibration    21          0.816              1.343              0.771
 Vibration    22          0.830              1.309              0.728
 Vibration    23          0.849              1.264              0.675
 Vibration    24          0.858              1.244              0.652
 Vibration    25          0.890              1.174              0.577
 Vibration    26          0.928              1.092              0.501

 Optimization completed.
    -- Stationary point found.
 Normal termination of Gaussian 16 at Thu Sep 24 06:57:10 2020.

 ----------------------------------------------------------------------
 #p b3lyp/6-31G(d) scrf=(iefpcm,read,solvent=water) geom=allcheck guess
 =read
 ----------------------------------------------------------------------

 Structure from the checkpoint file:  "SM42_m2.b.2.pdb.xyz.mst.b.w.chk"
 -------------------
 SM42_m2.b.2.pdb.xyz
 -------------------
 Charge =  1 Multiplicity = 1

 SCF Done:  E(RB3LYP) =  -1312.53162404     A.U. after    7 cycles
 Normal termination of Gaussian 16 at Thu Sep 24 06:57:54 2020.

 -----------------------------
 #p B3LYP/6-31G* geom=allcheck
 -----------------------------

 Structure from the checkpoint file:  "SM42_m2.b.2.pdb.xyz.mst.b.w.chk"
 -------------------
 SM42_m2.b.2.pdb.xyz
 -------------------
 Charge =  1 Multiplicity = 1

 SCF Done:  E(RB3LYP) =  -1312.43233225     A.U. after   16 cycles
 Normal termination of Gaussian 16 at Thu Sep 24 06:58:49 2020.
 Gaussian 16:  ES64L-G16RevB.01 20-Dec-2017

 ----------------------------------------------------------------------
 #p mp2/aug-cc-pVDZ scf=(MaxCycle=2000,NoVarAcc,NoIncFock) maxdisk=120G
 B geom=allcheck
 ----------------------------------------------------------------------

 Structure from the checkpoint file:  "SM42_m2.b.2.pdb.xyz.mst.b.w.chk"
 -------------------
 SM42_m2.b.2.pdb.xyz
 -------------------
 Charge =  1 Multiplicity = 1

                         Standard orientation:
 ---------------------------------------------------------------------
 Center     Atomic      Atomic             Coordinates (Angstroms)
 Number     Number       Type             X           Y           Z
 ---------------------------------------------------------------------
      1          8           0       -3.347761   -2.150559    0.917053
      2         16           0       -2.310564   -1.125077    0.854694
      3          7           0       -1.250556   -1.706562   -0.372716
      4          6           0        0.023152   -1.271324   -0.565316
      5          7           0        0.646990   -1.454226   -1.728603
      6          8           0        1.932431   -0.989160   -1.667897
      7          6           0        2.095045   -0.492757   -0.412613
      8          6           0        3.397637    0.060735   -0.089811
      9          6           0        4.426724    0.080492   -1.046574
     10          6           0        5.667416    0.616004   -0.715977
     11          6           0        5.890451    1.133216    0.562753
     12          6           0        4.868717    1.114325    1.516205
     13          6           0        3.625513    0.580533    1.195754
     14          6           0        0.938570   -0.644857    0.310638
     15          6           0       -3.007461    0.381350    0.217170
     16          6           0       -4.172553    0.305034   -0.549326
     17          6           0       -4.708607    1.484386   -1.061676
     18          6           0       -4.082514    2.706876   -0.806618
     19          6           0       -2.920381    2.763019   -0.033805
     20          6           0       -2.369354    1.594201    0.488028
     21          8           0       -1.455196   -0.824156    2.001786
     22          1           0       -1.735778   -2.119663   -1.172358
     23          1           0        4.250741   -0.321325   -2.037124
     24          1           0        6.460221    0.629868   -1.455287
     25          1           0        6.859076    1.550018    0.816391
     26          1           0        5.041441    1.515025    2.508564
     27          1           0        2.833948    0.563953    1.936061
     28          1           0        0.750598   -0.373997    1.333389
     29          1           0       -4.648208   -0.651298   -0.727097
     30          1           0       -5.614602    1.447553   -1.655508
     31          1           0       -4.504933    3.620972   -1.208507
     32          1           0       -2.444194    3.715604    0.167547
     33          1           0       -1.475959    1.621127    1.098970
     34          1           0        0.351701   -1.827490   -2.631446
 ---------------------------------------------------------------------

 SCF Done:  E(RHF) =  -1306.36389356     A.U. after   18 cycles
 E2 =    -0.3086982096D+01 EUMP2 =    -0.13094508756568D+04

 The electronic state is 1-A.
 Alpha  occ. eigenvalues --  -92.37301 -20.85202 -20.70012 -20.69499 -15.86226
 Alpha  occ. eigenvalues --  -15.79770 -11.55995 -11.52047 -11.40828 -11.40749
 Alpha  occ. eigenvalues --  -11.39630 -11.38867 -11.38683 -11.38654 -11.38508
 Alpha  occ. eigenvalues --  -11.37660 -11.37635 -11.37017 -11.36909 -11.36653
 Alpha  occ. eigenvalues --  -11.36618  -9.33991  -7.02522  -7.02504  -7.02339
 Alpha  occ. eigenvalues --   -1.71186  -1.60192  -1.48074  -1.46498  -1.35968
 Alpha  occ. eigenvalues --   -1.30313  -1.29620  -1.26678  -1.17663  -1.16990
 Alpha  occ. eigenvalues --   -1.15509  -1.15240  -1.07481  -1.04276  -1.02659
 Alpha  occ. eigenvalues --   -0.98312  -0.96626  -0.96177  -0.94887  -0.92931
 Alpha  occ. eigenvalues --   -0.87975  -0.87801  -0.85740  -0.84985  -0.83899
 Alpha  occ. eigenvalues --   -0.79953  -0.79850  -0.78466  -0.77974  -0.76814
 Alpha  occ. eigenvalues --   -0.75113  -0.74967  -0.74610  -0.72534  -0.72437
 Alpha  occ. eigenvalues --   -0.72120  -0.71830  -0.65722  -0.65371  -0.64580
 Alpha  occ. eigenvalues --   -0.63963  -0.63864  -0.63387  -0.62989  -0.62522
 Alpha  occ. eigenvalues --   -0.60770  -0.59977  -0.59065  -0.55684  -0.47951
 Alpha  occ. eigenvalues --   -0.46881  -0.46640  -0.46039
 Alpha virt. eigenvalues --   -0.09383  -0.07922  -0.05349  -0.04778  -0.04417
 Alpha virt. eigenvalues --   -0.03962  -0.03425  -0.03017  -0.02615  -0.02373
 Alpha virt. eigenvalues --   -0.01828  -0.01409  -0.01245  -0.01081  -0.00772

 Mulliken charges:
               1
     1  O   -1.093069
     2  S    2.945261
     3  N   -0.846880
     4  C   -0.101443
     5  N   -0.055474
     6  O   -1.047080
     7  C   -0.276073
     8  C    1.634451
     9  C    0.318491
    10  C    0.254492
    11  C    0.529087
    12  C    0.142091
    13  C    0.572027
    14  C    2.375536
    15  C    0.895356
    16  C   -0.203345
    17  C    0.661793
    18  C    0.467858
    19  C    0.482215
    20  C    0.232891
    21  O   -1.207236
    22  H   -0.085758
    23  H   -0.669845
    24  H   -0.427758
    25  H   -0.412189
    26  H   -0.471011
    27  H   -0.570320
    28  H   -0.670913
    29  H   -0.548529
    30  H   -0.423820
    31  H   -0.415497
    32  H   -0.451473
    33  H   -0.553028
    34  H    0.019190
 Sum of Mulliken charges =   1.00000

 Dipole moment (field-independent basis, Debye):
    X=              3.6343    Y=              1.7177    Z=             -6.4788  Tot=              7.6245
 Quadrupole moment (field-independent basis, Debye-Ang):
   XX=            -60.7755   YY=           -113.3298   ZZ=           -113.5973
   XY=             -6.4345   XZ=             15.9036   YZ=             15.5805

 Normal termination of Gaussian 16 at Thu Sep 24 07:47:32 2020.
