 Gaussian 16, Revision B.01,

 ----------------------------------------------------------------------
 #p b3lyp/6-31G(d) opt freq NoSymm scf=(MaxCycle=2000,NoVarAcc,NoIncFoc
 k) scrf=(iefpcm,read,solvent=water) MaxDisk=20GB
 ----------------------------------------------------------------------

 -------------------
 SM42_m0.n.2.pdb.xyz
 -------------------
 Symbolic Z-matrix:
 Charge =  0 Multiplicity = 1

 SCF Done:  E(RB3LYP) =  -1312.09242335     A.U. after   13 cycles
 SCF Done:  E(RB3LYP) =  -1312.09244391     A.U. after    9 cycles
 SCF Done:  E(RB3LYP) =  -1312.09245073     A.U. after    8 cycles
 SCF Done:  E(RB3LYP) =  -1312.09245699     A.U. after    9 cycles
 SCF Done:  E(RB3LYP) =  -1312.09246264     A.U. after    8 cycles
 SCF Done:  E(RB3LYP) =  -1312.09246368     A.U. after    8 cycles
 SCF Done:  E(RB3LYP) =  -1312.09246344     A.U. after    7 cycles
 SCF Done:  E(RB3LYP) =  -1312.09246254     A.U. after    7 cycles
 Optimization completed.
    -- Stationary point found.
 Normal termination of Gaussian 16 at Mon Sep 14 19:43:50 2020.

 --------------------------------------------------------------------
 #P Geom=AllCheck Guess=TCheck SCRF=Check GenChk RB3LYP/6-31G(d) Freq
 --------------------------------------------------------------------

 Structure from the checkpoint file:  "SM42_m0.n.2.pdb.xyz.mst.n.w.chk"
 -------------------
 SM42_m0.n.2.pdb.xyz
 -------------------
 Charge =  0 Multiplicity = 1

 SCF Done:  E(RB3LYP) =  -1312.09246254     A.U. after    1 cycles

  Exact polarizability: 338.609 -48.989 213.440  42.589  -2.495 237.613
 Approx polarizability: 368.127 -63.524 247.426  50.647  -2.169 301.837

                      1                      2                      3
                      A                      A                      A
 Frequencies --     13.5723                25.2232                29.2686
 Red. masses --      5.7791                 4.1643                 4.0514
 Frc consts  --      0.0006                 0.0016                 0.0020
 IR Inten    --      1.3521                 1.6639                 0.2919

                      4                      5                      6
                      A                      A                      A
 Frequencies --     46.5767                65.0774                88.8770
 Red. masses --      6.9359                 7.6421                 5.1766
 Frc consts  --      0.0089                 0.0191                 0.0241
 IR Inten    --      3.4885                 3.0864                 2.7852

                      7                      8                      9
                      A                      A                      A
 Frequencies --    122.9796               141.5007               168.1799
 Red. masses --      5.5395                 6.4271                 6.1795
 Frc consts  --      0.0494                 0.0758                 0.1030
 IR Inten    --      4.8862                10.2700                 2.2838

                     10                     11                     12
                      A                      A                      A
 Frequencies --    218.2081               254.6908               279.6285
 Red. masses --      5.0695                 8.9948                 6.4236
 Frc consts  --      0.1422                 0.3438                 0.2959
 IR Inten    --      0.7276                 0.6888                 3.6482

                     13                     14                     15
                      A                      A                      A
 Frequencies --    302.1847               306.3775               363.7647
 Red. masses --      7.6025                 7.2345                 8.6136
 Frc consts  --      0.4090                 0.4001                 0.6715
 IR Inten    --      7.2395                 3.6371                 0.6758

                     16                     17                     18
                      A                      A                      A
 Frequencies --    384.6822               411.5319               412.0077
 Red. masses --      5.4613                 4.6950                 3.0359
 Frc consts  --      0.4762                 0.4685                 0.3036
 IR Inten    --      8.6024                 5.6358                 0.4652

                     19                     20                     21
                      A                      A                      A
 Frequencies --    413.6888               455.5580               477.1299
 Red. masses --      3.9203                 5.1684                 4.7148
 Frc consts  --      0.3953                 0.6320                 0.6324
 IR Inten    --      4.7190                 2.6709                10.4340

                     22                     23                     24
                      A                      A                      A
 Frequencies --    499.6972               536.5770               551.7334
 Red. masses --      4.0593                 8.8024                 2.4341
 Frc consts  --      0.5972                 1.4932                 0.4366
 IR Inten    --      9.6918               133.1954                63.0098

                     25                     26                     27
                      A                      A                      A
 Frequencies --    594.6038               624.7229               630.9001
 Red. masses --      4.4476                 6.4442                 6.4367
 Frc consts  --      0.9265                 1.4818                 1.5095
 IR Inten    --    476.4306                 0.0451                 0.5192

                     28                     29                     30
                      A                      A                      A
 Frequencies --    667.2379               686.9206               695.6096
 Red. masses --      7.0332                 6.1343                 2.5434
 Frc consts  --      1.8449                 1.7054                 0.7251
 IR Inten    --      7.6642                25.7363                38.9000

                     31                     32                     33
                      A                      A                      A
 Frequencies --    705.2354               712.2884               723.8117
 Red. masses --      1.7789                 3.9713                 6.3932
 Frc consts  --      0.5213                 1.1871                 1.9734
 IR Inten    --     39.7500                34.3396               111.1510

                     34                     35                     36
                      A                      A                      A
 Frequencies --    764.8488               785.1160               785.9919
 Red. masses --      1.4565                 2.7637                 1.9626
 Frc consts  --      0.5020                 1.0037                 0.7144
 IR Inten    --     29.2780                15.7821                58.1867

                     37                     38                     39
                      A                      A                      A
 Frequencies --    825.6982               859.0074               863.4288
 Red. masses --      1.5504                 1.2630                 1.4032
 Frc consts  --      0.6228                 0.5491                 0.6163
 IR Inten    --     30.2035                 4.2695                19.0244

                     40                     41                     42
                      A                      A                      A
 Frequencies --    864.0637               945.8494               949.2034
 Red. masses --      2.9894                 1.3899                 1.3150
 Frc consts  --      1.3150                 0.7326                 0.6981
 IR Inten    --    115.4110                 3.1853                 0.1795

                     43                     44                     45
                      A                      A                      A
 Frequencies --    959.4576               965.9612               983.9180
 Red. masses --      9.6403                10.5664                 1.3531
 Frc consts  --      5.2287                 5.8090                 0.7718
 IR Inten    --     10.0773                56.8325                 0.0206

                     46                     47                     48
                      A                      A                      A
 Frequencies --    988.0234              1012.7957              1013.4140
 Red. masses --      1.3570                 1.2696                 6.4127
 Frc consts  --      0.7805                 0.7673                 3.8803
 IR Inten    --      0.0793                 0.1507                 6.7905

                     49                     50                     51
                      A                      A                      A
 Frequencies --   1016.7933              1021.2218              1038.8661
 Red. masses --      6.1116                 1.2919                 2.5017
 Frc consts  --      3.7228                 0.7938                 1.5908
 IR Inten    --      0.7158                 0.3002                12.5677

                     52                     53                     54
                      A                      A                      A
 Frequencies --   1046.9602              1054.2363              1076.5970
 Red. masses --      2.9872                 2.9304                 2.5945
 Frc consts  --      1.9292                 1.9189                 1.7718
 IR Inten    --     13.3292                38.3804                38.5059

                     55                     56                     57
                      A                      A                      A
 Frequencies --   1084.7410              1108.6609              1109.7579
 Red. masses --      3.1245                 1.5295                 1.5701
 Frc consts  --      2.1662                 1.1076                 1.1393
 IR Inten    --     60.4645                11.7981                12.9906

                     58                     59                     60
                      A                      A                      A
 Frequencies --   1133.4601              1189.9249              1193.7670
 Red. masses --      6.4325                 1.1128                 1.0962
 Frc consts  --      4.8690                 0.9284                 0.9204
 IR Inten    --    360.6659                 0.6576                 0.3687

                     61                     62                     63
                      A                      A                      A
 Frequencies --   1200.6922              1203.4663              1217.3354
 Red. masses --      1.2694                 1.1674                 1.8546
 Frc consts  --      1.0782                 0.9961                 1.6193
 IR Inten    --      9.8716                 1.2785                 8.5036

                     64                     65                     66
                      A                      A                      A
 Frequencies --   1292.5823              1302.7447              1341.3892
 Red. masses --      4.8306                 8.1584                 1.4526
 Frc consts  --      4.7552                 8.1578                 1.5399
 IR Inten    --     45.7039               215.0178                 0.8336

                     67                     68                     69
                      A                      A                      A
 Frequencies --   1353.9942              1364.5779              1369.3443
 Red. masses --      3.3390                 5.3180                 1.9515
 Frc consts  --      3.6066                 5.8343                 2.1559
 IR Inten    --     31.2661                10.5502                 3.8185

                     70                     71                     72
                      A                      A                      A
 Frequencies --   1395.3480              1482.8263              1493.3473
 Red. masses --      1.7705                 3.4969                 2.1860
 Frc consts  --      2.0311                 4.5302                 2.8722
 IR Inten    --    221.1723               190.3870                32.7000

                     73                     74                     75
                      A                      A                      A
 Frequencies --   1503.7510              1520.3411              1521.0856
 Red. masses --      3.2867                 2.6523                 2.0814
 Frc consts  --      4.3788                 3.6120                 2.8373
 IR Inten    --    270.5649                56.5375                 5.2659

                     76                     77                     78
                      A                      A                      A
 Frequencies --   1554.4018              1626.8103              1641.2438
 Red. masses --      3.1466                 5.5490                 5.4724
 Frc consts  --      4.4793                 8.6525                 8.6851
 IR Inten    --     56.7228               146.7594                 5.2043

                     79                     80                     81
                      A                      A                      A
 Frequencies --   1644.8816              1650.7656              1665.2581
 Red. masses --      5.8703                 6.5302                 5.9106
 Frc consts  --      9.3579                10.4846                 9.6570
 IR Inten    --      0.3325               111.3101                45.3603

                     82                     83                     84
                      A                      A                      A
 Frequencies --   3207.7906              3214.6990              3217.4076
 Red. masses --      1.0859                 1.0885                 1.0867
 Frc consts  --      6.5833                 6.6275                 6.6276
 IR Inten    --      1.5387                 4.3843                 0.7097

                     85                     86                     87
                      A                      A                      A
 Frequencies --   3221.9914              3226.5081              3231.5815
 Red. masses --      1.0927                 1.0899                 1.0959
 Frc consts  --      6.6832                 6.6848                 6.7432
 IR Inten    --     39.8907                15.7441                40.0108

                     88                     89                     90
                      A                      A                      A
 Frequencies --   3234.9435              3238.8542              3245.8979
 Red. masses --      1.0942                 1.0948                 1.0948
 Frc consts  --      6.7463                 6.7663                 6.7960
 IR Inten    --     22.2373                11.2917                10.2363

                     91                     92                     93
                      A                      A                      A
 Frequencies --   3252.7825              3337.5202              3499.9774
 Red. masses --      1.0937                 1.0986                 1.0762
 Frc consts  --      6.8180                 7.2099                 7.7671
 IR Inten    --      4.6463                 9.4851               180.2380

 - Thermochemistry -
 -------------------
 Temperature   298.150 Kelvin.  Pressure   1.00000 Atm.
 Atom     1 has atomic number  8 and mass  15.99491

 Molecular mass:   300.05686 amu.
 Principal axes and moments of inertia in atomic units:
                           1         2         3
     Eigenvalues --  3289.37248********************
           X            0.99998   0.00401   0.00539
           Y           -0.00384   0.99951  -0.03107
           Z           -0.00551   0.03105   0.99950
 This molecule is an asymmetric top.
 Rotational symmetry number  1.
 Warning -- assumption of classical behavior for rotation
           may cause significant error
 Rotational temperatures (Kelvin)      0.02633     0.00703     0.00653
 Rotational constants (GHZ):           0.54866     0.14647     0.13611
 Zero-point vibrational energy     650337.6 (Joules/Mol)
                                  155.43441 (Kcal/Mol)
 Warning -- explicit consideration of  25 degrees of freedom as
           vibrations may cause significant error
 Vibrational temperatures:     19.53    36.29    42.11    67.01    93.63
          (Kelvin)            127.87   176.94   203.59   241.97   313.95
                              366.44   402.32   434.78   440.81   523.38
                              553.47   592.10   592.79   595.21   655.45
                              686.48   718.95   772.01   793.82   855.50
                              898.84   907.72   960.01   988.33  1000.83
                             1014.68  1024.82  1041.40  1100.45  1129.61
                             1130.87  1188.00  1235.92  1242.28  1243.19
                             1360.87  1365.69  1380.45  1389.80  1415.64
                             1421.55  1457.19  1458.08  1462.94  1469.31
                             1494.70  1506.34  1516.81  1548.98  1560.70
                             1595.12  1596.69  1630.80  1712.04  1717.56
                             1727.53  1731.52  1751.47  1859.74  1874.36
                             1929.96  1948.10  1963.32  1970.18  2007.59
                             2133.46  2148.59  2163.56  2187.43  2188.50
                             2236.44  2340.62  2361.38  2366.62  2375.08
                             2395.93  4615.30  4625.23  4629.13  4635.73
                             4642.23  4649.52  4654.36  4659.99  4670.12
                             4680.03  4801.95  5035.69

 Zero-point correction=                           0.247700 (Hartree/Particle)
 Thermal correction to Energy=                    0.264987
 Thermal correction to Enthalpy=                  0.265931
 Thermal correction to Gibbs Free Energy=         0.198966
 Sum of electronic and zero-point Energies=          -1311.844762
 Sum of electronic and thermal Energies=             -1311.827476
 Sum of electronic and thermal Enthalpies=           -1311.826532
 Sum of electronic and thermal Free Energies=        -1311.893496

                     E (Thermal)             CV                S
                      KCal/Mol        Cal/Mol-Kelvin    Cal/Mol-Kelvin
 Total                  166.282             66.949            140.939
 Electronic               0.000              0.000              0.000
 Translational            0.889              2.981             42.993
 Rotational               0.889              2.981             34.640
 Vibrational            164.504             60.988             63.306
 Vibration     1          0.593              1.986              7.404
 Vibration     2          0.593              1.985              6.174
 Vibration     3          0.593              1.984              5.878
 Vibration     4          0.595              1.979              4.958
 Vibration     5          0.597              1.971              4.297
 Vibration     6          0.602              1.957              3.685
 Vibration     7          0.610              1.930              3.053
 Vibration     8          0.615              1.912              2.783
 Vibration     9          0.625              1.882              2.456
 Vibration    10          0.646              1.813              1.974
 Vibration    11          0.665              1.755              1.698
 Vibration    12          0.680              1.711              1.536
 Vibration    13          0.694              1.670              1.405
 Vibration    14          0.697              1.662              1.382
 Vibration    15          0.737              1.547              1.106
 Vibration    16          0.754              1.503              1.021
 Vibration    17          0.776              1.445              0.921
 Vibration    18          0.776              1.444              0.920
 Vibration    19          0.777              1.441              0.914
 Vibration    20          0.814              1.349              0.779
 Vibration    21          0.834              1.301              0.718
 Vibration    22          0.855              1.251              0.659
 Vibration    23          0.892              1.169              0.573
 Vibration    24          0.907              1.136              0.541
 Vibration    25          0.952              1.043              0.459

 Optimization completed.
    -- Stationary point found.
 Normal termination of Gaussian 16 at Mon Sep 14 19:55:36 2020.

 ----------------------------------------------------------------------
 #p b3lyp/6-31G(d) scrf=(iefpcm,read,solvent=water) geom=allcheck guess
 =read
 ----------------------------------------------------------------------

 Structure from the checkpoint file:  "SM42_m0.n.2.pdb.xyz.mst.n.w.chk"
 -------------------
 SM42_m0.n.2.pdb.xyz
 -------------------
 Charge =  0 Multiplicity = 1

 SCF Done:  E(RB3LYP) =  -1312.09246566     A.U. after    6 cycles
 Normal termination of Gaussian 16 at Mon Sep 14 19:56:12 2020.

 -----------------------------
 #p B3LYP/6-31G* geom=allcheck
 -----------------------------

 Structure from the checkpoint file:  "SM42_m0.n.2.pdb.xyz.mst.n.w.chk"
 -------------------
 SM42_m0.n.2.pdb.xyz
 -------------------
 Charge =  0 Multiplicity = 1

 SCF Done:  E(RB3LYP) =  -1312.07189718     A.U. after   15 cycles
 Normal termination of Gaussian 16 at Mon Sep 14 19:57:01 2020.
 Gaussian 16:  ES64L-G16RevB.01 20-Dec-2017

 ----------------------------------------------------------------------
 #p mp2/aug-cc-pVDZ scf=(MaxCycle=2000,NoVarAcc,NoIncFock) maxdisk=180G
 B geom=allcheck
 ----------------------------------------------------------------------

 Structure from the checkpoint file:  "SM42_m0.n.2.pdb.xyz.mst.n.w.chk"
 -------------------
 SM42_m0.n.2.pdb.xyz
 -------------------
 Charge =  0 Multiplicity = 1

                         Standard orientation:
 ---------------------------------------------------------------------
 Center     Atomic      Atomic             Coordinates (Angstroms)
 Number     Number       Type             X           Y           Z
 ---------------------------------------------------------------------
      1          8           0        3.561190   -2.147954   -0.459987
      2         16           0        2.387881   -1.284479   -0.618079
      3          7           0        1.333903   -1.798313    0.609796
      4          6           0        0.063080   -1.237091    0.772744
      5          7           0       -0.385024   -1.014769    1.994924
      6          8           0       -1.695223   -0.548804    1.813075
      7          6           0       -1.976924   -0.487857    0.488376
      8          6           0       -3.300513   -0.010247    0.102351
      9          6           0       -4.237290    0.370819    1.077220
     10          6           0       -5.496893    0.826854    0.695824
     11          6           0       -5.835723    0.907697   -0.656866
     12          6           0       -4.907301    0.529351   -1.630549
     13          6           0       -3.647051    0.073180   -1.256388
     14          6           0       -0.894301   -0.920995   -0.226682
     15          6           0        2.864721    0.397882   -0.267792
     16          6           0        3.933112    0.627370    0.601821
     17          6           0        4.289382    1.942971    0.890369
     18          6           0        3.582330    3.002239    0.315625
     19          6           0        2.518704    2.754967   -0.554403
     20          6           0        2.149610    1.444057   -0.853678
     21          8           0        1.607277   -1.296641   -1.859397
     22          1           0        1.833491   -1.954579    1.488077
     23          1           0       -3.972135    0.307306    2.125846
     24          1           0       -6.214003    1.119389    1.455281
     25          1           0       -6.817291    1.263485   -0.951348
     26          1           0       -5.165383    0.590085   -2.682186
     27          1           0       -2.929265   -0.218625   -2.015074
     28          1           0       -0.776841   -1.013970   -1.291927
     29          1           0        4.477618   -0.205763    1.029054
     30          1           0        5.119868    2.139658    1.558841
     31          1           0        3.864968    4.024060    0.543207
     32          1           0        1.978485    3.580128   -1.004484
     33          1           0        1.336628    1.232063   -1.536420
 ---------------------------------------------------------------------

 SCF Done:  E(RHF) =  -1306.00009478     A.U. after   18 cycles
 E2 =    -0.3109817699D+01 EUMP2 =    -0.13091099124838D+04

 The electronic state is 1-A.
 Alpha  occ. eigenvalues --  -92.24268 -20.65593 -20.57198 -20.57027 -15.63898
 Alpha  occ. eigenvalues --  -15.62781 -11.34350 -11.33972 -11.29907 -11.28375
 Alpha  occ. eigenvalues --  -11.28346 -11.27883 -11.27440 -11.27231 -11.27200
 Alpha  occ. eigenvalues --  -11.26598 -11.26289 -11.26253 -11.25918 -11.25812
 Alpha  occ. eigenvalues --  -11.24788  -9.21004  -6.89551  -6.89498  -6.89392
 Alpha  occ. eigenvalues --   -1.49684  -1.47278  -1.35306  -1.28279  -1.19369
 Alpha  occ. eigenvalues --   -1.18245  -1.14466  -1.09760  -1.06867  -1.05393
 Alpha  occ. eigenvalues --   -1.03699  -1.02920  -0.93231  -0.88422  -0.86561
 Alpha  occ. eigenvalues --   -0.86140  -0.84204  -0.81360  -0.80432  -0.76079
 Alpha  occ. eigenvalues --   -0.74814  -0.71759  -0.69562  -0.68798  -0.67481
 Alpha  occ. eigenvalues --   -0.66656  -0.66298  -0.64974  -0.64828  -0.63714
 Alpha  occ. eigenvalues --   -0.62588  -0.62419  -0.60961  -0.59893  -0.57536
 Alpha  occ. eigenvalues --   -0.55969  -0.54901  -0.53295  -0.53127  -0.52559
 Alpha  occ. eigenvalues --   -0.52278  -0.51163  -0.50920  -0.50806  -0.48670
 Alpha  occ. eigenvalues --   -0.48280  -0.47503  -0.40957  -0.39847  -0.37300
 Alpha  occ. eigenvalues --   -0.36790  -0.35477  -0.32227
 Alpha virt. eigenvalues --    0.02613   0.02945   0.03672   0.03963   0.04456
 Alpha virt. eigenvalues --    0.05102   0.05531   0.05694   0.06259   0.06412
 Alpha virt. eigenvalues --    0.06730   0.07338   0.07639   0.08337   0.08688

 Mulliken charges:
               1
     1  O   -1.142811
     2  S    3.055612
     3  N   -0.955420
     4  C    0.053280
     5  N   -0.322491
     6  O   -1.080427
     7  C   -0.046412
     8  C    1.431362
     9  C    0.384356
    10  C    0.240317
    11  C    0.538836
    12  C    0.057727
    13  C    0.621278
    14  C    1.849002
    15  C    0.755848
    16  C   -0.160693
    17  C    0.583876
    18  C    0.490422
    19  C    0.420255
    20  C    0.303449
    21  O   -1.245128
    22  H   -0.082823
    23  H   -0.673517
    24  H   -0.442888
    25  H   -0.435880
    26  H   -0.488761
    27  H   -0.597134
    28  H   -0.629698
    29  H   -0.562118
    30  H   -0.443764
    31  H   -0.436042
    32  H   -0.469212
    33  H   -0.570401
 Sum of Mulliken charges =  -0.00000

 Dipole moment (field-independent basis, Debye):
    X=             -1.7207    Y=              5.4624    Z=              0.3275  Tot=              5.7364
 Quadrupole moment (field-independent basis, Debye-Ang):
   XX=           -110.4767   YY=           -130.7286   ZZ=           -133.3281
   XY=             10.7470   XZ=             15.6089   YZ=             -3.9427

 Normal termination of Gaussian 16 at Mon Sep 14 21:05:17 2020.
