 Gaussian 16, Revision B.01,

 ----------------------------------------------------------------------
 #p b3lyp/6-31G(d) opt freq NoSymm scf=(MaxCycle=2000,NoVarAcc,NoIncFoc
 k) scrf=(iefpcm,read,solvent=water)
 ----------------------------------------------------------------------

 -------------------
 SM42_m1.a.3.pdb.xyz
 -------------------
 Symbolic Z-matrix:
 Charge = -1 Multiplicity = 1

 SCF Done:  E(RB3LYP) =  -1311.62206574     A.U. after   13 cycles
 SCF Done:  E(RB3LYP) =  -1311.62191102     A.U. after   10 cycles
 SCF Done:  E(RB3LYP) =  -1311.62194451     A.U. after    9 cycles
 SCF Done:  E(RB3LYP) =  -1311.62206192     A.U. after   10 cycles
 SCF Done:  E(RB3LYP) =  -1311.62206771     A.U. after    8 cycles
 SCF Done:  E(RB3LYP) =  -1311.62194852     A.U. after   10 cycles
 SCF Done:  E(RB3LYP) =  -1311.62192665     A.U. after    9 cycles
 SCF Done:  E(RB3LYP) =  -1311.62206037     A.U. after   10 cycles
 SCF Done:  E(RB3LYP) =  -1311.62206747     A.U. after    9 cycles
 SCF Done:  E(RB3LYP) =  -1311.62206772     A.U. after    8 cycles
 SCF Done:  E(RB3LYP) =  -1311.62206708     A.U. after    9 cycles
 SCF Done:  E(RB3LYP) =  -1311.62193075     A.U. after   11 cycles
 SCF Done:  E(RB3LYP) =  -1311.62193327     A.U. after    7 cycles
 SCF Done:  E(RB3LYP) =  -1311.62205925     A.U. after   10 cycles
 SCF Done:  E(RB3LYP) =  -1311.62206702     A.U. after    9 cycles
 SCF Done:  E(RB3LYP) =  -1311.62193244     A.U. after   11 cycles
 Optimization completed.
    -- Stationary point found.
 Normal termination of Gaussian 16 at Thu Sep 24 06:29:02 2020.

 --------------------------------------------------------------------
 #P Geom=AllCheck Guess=TCheck SCRF=Check GenChk RB3LYP/6-31G(d) Freq
 --------------------------------------------------------------------

 Structure from the checkpoint file:  "SM42_m1.a.3.pdb.xyz.mst.a.w.chk"
 -------------------
 SM42_m1.a.3.pdb.xyz
 -------------------
 Charge = -1 Multiplicity = 1

 SCF Done:  E(RB3LYP) =  -1311.62193244     A.U. after    1 cycles

  Exact polarizability: 317.614 -32.740 258.606  -0.607  45.496 231.011
 Approx polarizability: 339.700 -39.640 302.584   2.822  65.876 289.703

                      1                      2                      3
                      A                      A                      A
 Frequencies --     19.8529                26.2896                27.8964
 Red. masses --      6.3484                 3.9432                 3.7806
 Frc consts  --      0.0015                 0.0016                 0.0017
 IR Inten    --      3.1894                 0.5251                 0.7276

                      4                      5                      6
                      A                      A                      A
 Frequencies --     47.2120                69.2213                92.9239
 Red. masses --      7.7891                 7.1899                 5.1574
 Frc consts  --      0.0102                 0.0203                 0.0262
 IR Inten    --      2.9386                 2.0955                 4.7627

                      7                      8                      9
                      A                      A                      A
 Frequencies --    132.9437               152.4148               182.3493
 Red. masses --      6.5920                 6.7468                 6.3470
 Frc consts  --      0.0686                 0.0923                 0.1243
 IR Inten    --      2.4129                 8.7849                 1.7062

                     10                     11                     12
                      A                      A                      A
 Frequencies --    223.8615               269.7509               291.3497
 Red. masses --      5.3271                 9.6465                 6.5220
 Frc consts  --      0.1573                 0.4136                 0.3262
 IR Inten    --      3.1404                 1.8529                 1.9319

                     13                     14                     15
                      A                      A                      A
 Frequencies --    303.6280               319.9489               361.9817
 Red. masses --      8.3571                 8.0362                 8.3518
 Frc consts  --      0.4539                 0.4847                 0.6448
 IR Inten    --      8.2862                 0.5060                 2.2087

                     16                     17                     18
                      A                      A                      A
 Frequencies --    379.5582               413.6104               413.7881
 Red. masses --      9.3391                 2.9829                 2.9984
 Frc consts  --      0.7927                 0.3007                 0.3025
 IR Inten    --      1.2216                 0.3243                 0.6545

                     19                     20                     21
                      A                      A                      A
 Frequencies --    427.0721               454.6147               497.3615
 Red. masses --     10.2116                 5.8174                 4.0981
 Frc consts  --      1.0974                 0.7084                 0.5973
 IR Inten    --      6.4026                 3.6095                 1.3747

                     22                     23                     24
                      A                      A                      A
 Frequencies --    500.8302               551.9700               584.4143
 Red. masses --      5.0674                10.8354                 9.7126
 Frc consts  --      0.7489                 1.9450                 1.9545
 IR Inten    --      6.6810               154.5071               337.4451

                     25                     26                     27
                      A                      A                      A
 Frequencies --    627.5543               631.3343               663.2695
 Red. masses --      6.4332                 6.4470                 7.3955
 Frc consts  --      1.4927                 1.5140                 1.9169
 IR Inten    --      0.2319                 0.0264                 2.0423

                     28                     29                     30
                      A                      A                      A
 Frequencies --    679.9819               702.7297               705.6077
 Red. masses --      7.5136                 2.5427                 1.9980
 Frc consts  --      2.0469                 0.7398                 0.5861
 IR Inten    --     30.2520                51.4771                52.6065

                     31                     32                     33
                      A                      A                      A
 Frequencies --    707.5458               718.0076               740.8276
 Red. masses --      4.5453                 4.6056                 6.6727
 Frc consts  --      1.3407                 1.3989                 2.1577
 IR Inten    --      1.7065                 6.9951               118.3700

                     34                     35                     36
                      A                      A                      A
 Frequencies --    765.6207               784.1539               820.2739
 Red. masses --      1.5243                 1.7128                 1.5293
 Frc consts  --      0.5264                 0.6205                 0.6063
 IR Inten    --     29.0749                67.3093                33.9282

                     37                     38                     39
                      A                      A                      A
 Frequencies --    863.6171               864.1458               921.6921
 Red. masses --      1.2525                 1.2458                12.2761
 Frc consts  --      0.5504                 0.5481                 6.1444
 IR Inten    --      0.1052                 0.1827                51.7337

                     40                     41                     42
                      A                      A                      A
 Frequencies --    933.6753               939.4246               940.7136
 Red. masses --     10.5138                 1.3289                 1.3953
 Frc consts  --      5.4001                 0.6910                 0.7275
 IR Inten    --    193.5130                 2.2357                 3.4821

                     43                     44                     45
                      A                      A                      A
 Frequencies --    956.4107               981.7342               986.7949
 Red. masses --      8.9267                 1.3503                 1.3507
 Frc consts  --      4.8109                 0.7668                 0.7749
 IR Inten    --     46.7258                 0.0075                 0.4885

                     46                     47                     48
                      A                      A                      A
 Frequencies --   1010.2711              1013.4006              1013.8355
 Red. masses --      1.2613                 1.6407                 2.9082
 Frc consts  --      0.7585                 0.9928                 1.7612
 IR Inten    --      0.1364                 3.0243                 8.4546

                     49                     50                     51
                      A                      A                      A
 Frequencies --   1016.3196              1034.2903              1048.4632
 Red. masses --      6.1526                 3.0280                 2.7510
 Frc consts  --      3.7443                 1.9085                 1.7818
 IR Inten    --      0.3790                48.9985                14.7757

                     52                     53                     54
                      A                      A                      A
 Frequencies --   1054.8627              1077.0623              1097.6738
 Red. masses --      2.4525                 2.6366                 6.1959
 Frc consts  --      1.6079                 1.8021                 4.3985
 IR Inten    --     28.7371               291.4814               164.7157

                     55                     56                     57
                      A                      A                      A
 Frequencies --   1105.2087              1107.5891              1119.1927
 Red. masses --      1.6259                 1.5752                 3.4455
 Frc consts  --      1.1701                 1.1386                 2.5428
 IR Inten    --     26.4179                21.4160               192.2406

                     58                     59                     60
                      A                      A                      A
 Frequencies --   1187.7125              1189.0557              1199.9772
 Red. masses --      1.1061                 1.0986                 1.4168
 Frc consts  --      0.9193                 0.9151                 1.2020
 IR Inten    --      1.5552                 0.8603                41.4282

                     61                     62                     63
                      A                      A                      A
 Frequencies --   1202.0391              1209.4065              1228.6318
 Red. masses --      1.2405                 3.5813                 2.4223
 Frc consts  --      1.0560                 3.0863                 2.1543
 IR Inten    --     48.0028               285.5193               149.6993

                     64                     65                     66
                      A                      A                      A
 Frequencies --   1295.4460              1335.7563              1350.8646
 Red. masses --      4.4351                 1.5003                 3.4024
 Frc consts  --      4.3852                 1.5772                 3.6582
 IR Inten    --     17.6957                 5.0873                45.0292

                     67                     68                     69
                      A                      A                      A
 Frequencies --   1357.4668              1366.9451              1437.5095
 Red. masses --      5.0844                 2.0130                 7.3174
 Frc consts  --      5.5201                 2.2162                 8.9090
 IR Inten    --      1.0470                 3.5995               344.7895

                     70                     71                     72
                      A                      A                      A
 Frequencies --   1478.0785              1488.4968              1497.9839
 Red. masses --      5.3691                 2.2004                 2.5633
 Frc consts  --      6.9111                 2.8725                 3.3890
 IR Inten    --    565.4866                30.5908               174.7391

                     73                     74                     75
                      A                      A                      A
 Frequencies --   1523.1260              1540.3633              1624.9698
 Red. masses --      2.0827                 2.4155                 5.8311
 Frc consts  --      2.8468                 3.3768                 9.0717
 IR Inten    --      6.2047               161.4916               145.0672

                     76                     77                     78
                      A                      A                      A
 Frequencies --   1639.8820              1644.2895              1649.4118
 Red. masses --      5.8651                 5.4978                 6.8439
 Frc consts  --      9.2929                 8.7578                10.9702
 IR Inten    --      0.0544                 0.9483               112.3088

                     79                     80                     81
                      A                      A                      A
 Frequencies --   1665.4789              3204.7669              3206.8877
 Red. masses --      6.0619                 1.0856                 1.0858
 Frc consts  --      9.9069                 6.5691                 6.5794
 IR Inten    --     25.3870                 2.2288                 0.3863

                     82                     83                     84
                      A                      A                      A
 Frequencies --   3211.5611              3216.1324              3219.7658
 Red. masses --      1.0883                 1.0887                 1.0925
 Frc consts  --      6.6138                 6.6347                 6.6730
 IR Inten    --      7.1652                14.1171                43.3529

                     85                     86                     87
                      A                      A                      A
 Frequencies --   3223.9923              3227.9133              3232.2066
 Red. masses --      1.0928                 1.0957                 1.0962
 Frc consts  --      6.6925                 6.7267                 6.7475
 IR Inten    --     33.3129                42.8887                27.3209

                     88                     89                     90
                      A                      A                      A
 Frequencies --   3236.2303              3245.5090              3328.0497
 Red. masses --      1.0947                 1.0925                 1.0973
 Frc consts  --      6.7551                 6.7798                 7.1610
 IR Inten    --     14.1970                 8.8414                 5.8880

 - Thermochemistry -
 -------------------
 Temperature   298.150 Kelvin.  Pressure   1.00000 Atm.
 Atom     1 has atomic number  8 and mass  15.99491

 Molecular mass:   299.04904 amu.
 Principal axes and moments of inertia in atomic units:
                           1         2         3
     Eigenvalues --  3567.71907********************
           X            0.99982   0.01173  -0.01466
           Y           -0.01048   0.99653   0.08261
           Z            0.01558  -0.08244   0.99647
 This molecule is an asymmetric top.
 Rotational symmetry number  1.
 Warning -- assumption of classical behavior for rotation
           may cause significant error
 Rotational temperatures (Kelvin)      0.02428     0.00740     0.00669
 Rotational constants (GHZ):           0.50585     0.15426     0.13934
 Zero-point vibrational energy     616340.2 (Joules/Mol)
                                  147.30884 (Kcal/Mol)
 Warning -- explicit consideration of  24 degrees of freedom as
           vibrations may cause significant error
 Vibrational temperatures:     28.56    37.82    40.14    67.93    99.59
          (Kelvin)            133.70   191.28   219.29   262.36   322.09
                              388.11   419.19   436.85   460.34   520.81
                              546.10   595.09   595.35   614.46   654.09
                              715.59   720.58   794.16   840.84   902.91
                              908.35   954.30   978.34  1011.07  1015.21
                             1018.00  1033.05  1065.89  1101.56  1128.22
                             1180.19  1242.55  1243.31  1326.11  1343.35
                             1351.62  1353.48  1376.06  1412.50  1419.78
                             1453.55  1458.06  1458.68  1462.26  1488.11
                             1508.50  1517.71  1549.65  1579.31  1590.15
                             1593.57  1610.27  1708.85  1710.79  1726.50
                             1729.47  1740.07  1767.73  1863.86  1921.86
                             1943.59  1953.09  1966.73  2068.26  2126.63
                             2141.61  2155.26  2191.44  2216.24  2337.97
                             2359.42  2365.77  2373.14  2396.25  4610.94
                             4614.00  4620.72  4627.30  4632.52  4638.61
                             4644.25  4650.42  4656.21  4669.56  4788.32

 Zero-point correction=                           0.234752 (Hartree/Particle)
 Thermal correction to Energy=                    0.251685
 Thermal correction to Enthalpy=                  0.252629
 Thermal correction to Gibbs Free Energy=         0.186760
 Sum of electronic and zero-point Energies=          -1311.387181
 Sum of electronic and thermal Energies=             -1311.370247
 Sum of electronic and thermal Enthalpies=           -1311.369303
 Sum of electronic and thermal Free Energies=        -1311.435172

                     E (Thermal)             CV                S
                      KCal/Mol        Cal/Mol-Kelvin    Cal/Mol-Kelvin
 Total                  157.935             65.688            138.633
 Electronic               0.000              0.000              0.000
 Translational            0.889              2.981             42.983
 Rotational               0.889              2.981             34.646
 Vibrational            156.157             59.726             61.004
 Vibration     1          0.593              1.986              6.649
 Vibration     2          0.593              1.985              6.091
 Vibration     3          0.593              1.984              5.974
 Vibration     4          0.595              1.979              4.931
 Vibration     5          0.598              1.969              4.175
 Vibration     6          0.602              1.954              3.598
 Vibration     7          0.613              1.920              2.903
 Vibration     8          0.619              1.900              2.642
 Vibration     9          0.630              1.864              2.304
 Vibration    10          0.649              1.805              1.928
 Vibration    11          0.674              1.729              1.598
 Vibration    12          0.687              1.690              1.466
 Vibration    13          0.695              1.667              1.397
 Vibration    14          0.706              1.635              1.310
 Vibration    15          0.736              1.551              1.114
 Vibration    16          0.750              1.514              1.041
 Vibration    17          0.777              1.441              0.914
 Vibration    18          0.777              1.440              0.913
 Vibration    19          0.789              1.411              0.868
 Vibration    20          0.813              1.351              0.782
 Vibration    21          0.853              1.256              0.665
 Vibration    22          0.856              1.248              0.656
 Vibration    23          0.907              1.135              0.540
 Vibration    24          0.941              1.065              0.477

 Optimization completed.
    -- Stationary point found.
 Normal termination of Gaussian 16 at Thu Sep 24 06:38:59 2020.

 ----------------------------------------------------------------------
 #p b3lyp/6-31G(d) scrf=(iefpcm,read,solvent=water) geom=allcheck guess
 =read
 ----------------------------------------------------------------------

 Structure from the checkpoint file:  "SM42_m1.a.3.pdb.xyz.mst.a.w.chk"
 -------------------
 SM42_m1.a.3.pdb.xyz
 -------------------
 Charge = -1 Multiplicity = 1

 SCF Done:  E(RB3LYP) =  -1311.62188917     A.U. after    6 cycles
 Normal termination of Gaussian 16 at Thu Sep 24 06:39:34 2020.

 -----------------------------
 #p B3LYP/6-31G* geom=allcheck
 -----------------------------

 Structure from the checkpoint file:  "SM42_m1.a.3.pdb.xyz.mst.a.w.chk"
 -------------------
 SM42_m1.a.3.pdb.xyz
 -------------------
 Charge = -1 Multiplicity = 1

 SCF Done:  E(RB3LYP) =  -1311.52600566     A.U. after   15 cycles
 Normal termination of Gaussian 16 at Thu Sep 24 06:40:15 2020.
 Gaussian 16:  ES64L-G16RevB.01 20-Dec-2017

 ----------------------------------------------------------------------
 #p mp2/aug-cc-pVDZ scf=(MaxCycle=2000,NoVarAcc,NoIncFock) maxdisk=120G
 B geom=allcheck
 ----------------------------------------------------------------------

 Structure from the checkpoint file:  "SM42_m1.a.3.pdb.xyz.mst.a.w.chk"
 -------------------
 SM42_m1.a.3.pdb.xyz
 -------------------
 Charge = -1 Multiplicity = 1

                         Standard orientation:
 ---------------------------------------------------------------------
 Center     Atomic      Atomic             Coordinates (Angstroms)
 Number     Number       Type             X           Y           Z
 ---------------------------------------------------------------------
      1          8           0       -1.698489   -0.849290   -2.094123
      2         16           0       -2.342609   -1.167568   -0.788626
      3          7           0       -1.407032   -1.936495    0.257811
      4          6           0       -0.102833   -1.536174    0.422192
      5          7           0        0.580574   -2.068919    1.438080
      6          8           0        1.881106   -1.514136    1.351839
      7          6           0        1.935550   -0.663605    0.300965
      8          6           0        3.208524    0.009968    0.053236
      9          6           0        3.342698    0.899366   -1.026524
     10          6           0        4.556419    1.539828   -1.262434
     11          6           0        5.651785    1.303040   -0.426910
     12          6           0        5.525120    0.420392    0.648199
     13          6           0        4.313210   -0.222938    0.888829
     14          6           0        0.726247   -0.630807   -0.327194
     15          6           0       -2.773951    0.431468   -0.066963
     16          6           0       -3.269617    0.486756    1.239550
     17          6           0       -3.628489    1.718794    1.783825
     18          6           0       -3.492078    2.887284    1.027088
     19          6           0       -2.995456    2.823206   -0.275696
     20          6           0       -2.634908    1.592260   -0.828161
     21          8           0       -3.606385   -1.940770   -0.877587
     22          1           0        2.495895    1.085877   -1.678196
     23          1           0        4.648201    2.224167   -2.099211
     24          1           0        6.596272    1.803219   -0.613016
     25          1           0        6.371245    0.232184    1.300802
     26          1           0        4.211805   -0.908296    1.721952
     27          1           0        0.439964   -0.078259   -1.205243
     28          1           0       -3.365122   -0.420633    1.825429
     29          1           0       -4.011985    1.768093    2.797498
     30          1           0       -3.770513    3.844692    1.454877
     31          1           0       -2.886674    3.728842   -0.862998
     32          1           0       -2.245315    1.519653   -1.836174
 ---------------------------------------------------------------------

 SCF Done:  E(RHF) =  -1305.45644826     A.U. after   18 cycles
 E2 =    -0.3122935788D+01 EUMP2 =    -0.13085793840458D+04

 The electronic state is 1-A.
 Alpha  occ. eigenvalues --  -92.06039 -20.50690 -20.39733 -20.38902 -15.46384
 Alpha  occ. eigenvalues --  -15.39596 -11.20160 -11.18273 -11.17514 -11.17185
 Alpha  occ. eigenvalues --  -11.17032 -11.16953 -11.16775 -11.16434 -11.15859
 Alpha  occ. eigenvalues --  -11.15778 -11.15403 -11.15342 -11.15153 -11.15090
 Alpha  occ. eigenvalues --  -11.11188  -9.02740  -6.71302  -6.71213  -6.71177
 Alpha  occ. eigenvalues --   -1.34376  -1.28686  -1.16385  -1.08807  -1.07900
 Alpha  occ. eigenvalues --   -1.06360  -0.98854  -0.96472  -0.94304  -0.93045
 Alpha  occ. eigenvalues --   -0.92736  -0.90979  -0.77490  -0.76894  -0.75411
 Alpha  occ. eigenvalues --   -0.73809  -0.70268  -0.67807  -0.64503  -0.62879
 Alpha  occ. eigenvalues --   -0.60308  -0.58075  -0.55676  -0.54606  -0.54119
 Alpha  occ. eigenvalues --   -0.53216  -0.52265  -0.51624  -0.51395  -0.50697
 Alpha  occ. eigenvalues --   -0.49842  -0.49057  -0.47635  -0.43770  -0.43104
 Alpha  occ. eigenvalues --   -0.42943  -0.42736  -0.41405  -0.41140  -0.40504
 Alpha  occ. eigenvalues --   -0.36637  -0.34947  -0.33664  -0.32983  -0.31610
 Alpha  occ. eigenvalues --   -0.30236  -0.29595  -0.26389  -0.26209  -0.24628
 Alpha  occ. eigenvalues --   -0.24478  -0.20911  -0.18639
 Alpha virt. eigenvalues --    0.08812   0.09747   0.10022   0.10801   0.11302
 Alpha virt. eigenvalues --    0.12161   0.13463   0.13924   0.15060   0.15493
 Alpha virt. eigenvalues --    0.15886   0.17332   0.17663   0.18146   0.18254

 Mulliken charges:
               1
     1  O   -1.364953
     2  S    3.031495
     3  N   -1.270496
     4  C   -0.165032
     5  N   -0.421215
     6  O   -1.131003
     7  C    0.162455
     8  C    1.391429
     9  C    0.554850
    10  C    0.068155
    11  C    0.518760
    12  C    0.251482
    13  C    0.307913
    14  C    1.841995
    15  C    0.829453
    16  C   -0.104805
    17  C    0.491456
    18  C    0.561558
    19  C    0.471547
    20  C    0.240027
    21  O   -1.262107
    22  H   -0.554163
    23  H   -0.505796
    24  H   -0.457537
    25  H   -0.457780
    26  H   -0.670299
    27  H   -0.724349
    28  H   -0.609722
    29  H   -0.476668
    30  H   -0.460980
    31  H   -0.483848
    32  H   -0.601823
 Sum of Mulliken charges =  -1.00000

 Dipole moment (field-independent basis, Debye):
    X=              6.8846    Y=             10.2755    Z=              0.8660  Tot=             12.3989
 Quadrupole moment (field-independent basis, Debye-Ang):
   XX=           -164.3841   YY=           -154.9005   ZZ=           -143.3498
   XY=            -14.8587   XZ=            -14.0791   YZ=             -2.7613

 Normal termination of Gaussian 16 at Thu Sep 24 07:31:46 2020.
