 Gaussian 16, Revision B.01,

 ----------------------------------------------------------------------
 #p b3lyp/6-31G(d) opt freq NoSymm scf=(MaxCycle=2000,NoVarAcc,NoIncFoc
 k) scrf=(iefpcm,read,solvent=water) MaxDisk=20GB
 ----------------------------------------------------------------------

 -------------------
 SM42_m0.n.3.pdb.xyz
 -------------------
 Symbolic Z-matrix:
 Charge =  0 Multiplicity = 1

 SCF Done:  E(RB3LYP) =  -1312.08987634     A.U. after   13 cycles
 SCF Done:  E(RB3LYP) =  -1312.08990476     A.U. after    9 cycles
 SCF Done:  E(RB3LYP) =  -1312.08990989     A.U. after    8 cycles
 SCF Done:  E(RB3LYP) =  -1312.08991229     A.U. after    8 cycles
 SCF Done:  E(RB3LYP) =  -1312.08991530     A.U. after    9 cycles
 SCF Done:  E(RB3LYP) =  -1312.08991919     A.U. after    8 cycles
 SCF Done:  E(RB3LYP) =  -1312.08992362     A.U. after    8 cycles
 SCF Done:  E(RB3LYP) =  -1312.08992559     A.U. after    8 cycles
 SCF Done:  E(RB3LYP) =  -1312.08992662     A.U. after    8 cycles
 SCF Done:  E(RB3LYP) =  -1312.08992778     A.U. after    8 cycles
 SCF Done:  E(RB3LYP) =  -1312.08992766     A.U. after    7 cycles
 SCF Done:  E(RB3LYP) =  -1312.08992740     A.U. after    7 cycles
 SCF Done:  E(RB3LYP) =  -1312.08992708     A.U. after    6 cycles
 SCF Done:  E(RB3LYP) =  -1312.08992706     A.U. after    6 cycles
 Optimization completed.
    -- Stationary point found.
 Normal termination of Gaussian 16 at Mon Sep 14 19:50:23 2020.

 --------------------------------------------------------------------
 #P Geom=AllCheck Guess=TCheck SCRF=Check GenChk RB3LYP/6-31G(d) Freq
 --------------------------------------------------------------------

 Structure from the checkpoint file:  "SM42_m0.n.3.pdb.xyz.mst.n.w.chk"
 -------------------
 SM42_m0.n.3.pdb.xyz
 -------------------
 Charge =  0 Multiplicity = 1

 SCF Done:  E(RB3LYP) =  -1312.08992706     A.U. after    1 cycles

  Exact polarizability: 314.555 -17.446 302.183 -29.040  32.363 168.555
 Approx polarizability: 344.657 -17.000 355.640 -36.558  44.823 211.171

                      1                      2                      3
                      A                      A                      A
 Frequencies --     18.2998                26.4469                37.1674
 Red. masses --      6.0214                 4.5386                 5.9218
 Frc consts  --      0.0012                 0.0019                 0.0048
 IR Inten    --      1.9433                 0.5076                 1.5789

                      4                      5                      6
                      A                      A                      A
 Frequencies --     42.0264                64.4978                80.8325
 Red. masses --      3.9791                 6.8677                 5.4358
 Frc consts  --      0.0041                 0.0168                 0.0209
 IR Inten    --      0.0561                 2.0201                 1.2976

                      7                      8                      9
                      A                      A                      A
 Frequencies --    113.9390               142.6199               174.3445
 Red. masses --      6.8421                 5.1086                 6.3473
 Frc consts  --      0.0523                 0.0612                 0.1137
 IR Inten    --      2.5665                 3.6300                 3.7547

                     10                     11                     12
                      A                      A                      A
 Frequencies --    221.9326               252.5420               256.3795
 Red. masses --      5.1262                 6.3439                 8.8572
 Frc consts  --      0.1488                 0.2384                 0.3430
 IR Inten    --      4.0574                 8.4019                 2.2089

                     13                     14                     15
                      A                      A                      A
 Frequencies --    306.8342               325.7794               361.3364
 Red. masses --      8.4032                 8.0275                 5.8695
 Frc consts  --      0.4661                 0.5020                 0.4515
 IR Inten    --      6.2921                 1.5812                13.1351

                     16                     17                     18
                      A                      A                      A
 Frequencies --    375.7845               411.2578               412.7523
 Red. masses --      3.1963                 2.9699                 4.9223
 Frc consts  --      0.2659                 0.2960                 0.4941
 IR Inten    --     25.5708                 0.2159                 3.3483

                     19                     20                     21
                      A                      A                      A
 Frequencies --    413.5989               441.3682               473.2237
 Red. masses --      3.9080                 4.4106                 2.6089
 Frc consts  --      0.3939                 0.5062                 0.3442
 IR Inten    --      2.5851                26.0356                54.5612

                     22                     23                     24
                      A                      A                      A
 Frequencies --    486.0862               500.6253               545.6068
 Red. masses --      3.6102                 4.2950                13.8513
 Frc consts  --      0.5026                 0.6342                 2.4294
 IR Inten    --     59.2771                 3.7569               202.7271

                     25                     26                     27
                      A                      A                      A
 Frequencies --    564.6017               624.9262               630.7642
 Red. masses --      6.8574                 6.4513                 6.4441
 Frc consts  --      1.2879                 1.4844                 1.5106
 IR Inten    --    269.0866                 0.2225                 0.1446

                     28                     29                     30
                      A                      A                      A
 Frequencies --    663.7693               686.7771               697.5536
 Red. masses --      7.6733                 5.8508                 2.4501
 Frc consts  --      1.9919                 1.6259                 0.7024
 IR Inten    --      7.1601                22.9415                47.9960

                     31                     32                     33
                      A                      A                      A
 Frequencies --    703.9399               706.9085               718.1880
 Red. masses --      1.7750                 4.0792                 5.9066
 Frc consts  --      0.5182                 1.2010                 1.7950
 IR Inten    --     50.7239                 4.4275                36.5860

                     34                     35                     36
                      A                      A                      A
 Frequencies --    764.8252               780.7501               788.7731
 Red. masses --      1.4977                 1.4749                 3.7791
 Frc consts  --      0.5162                 0.5297                 1.3853
 IR Inten    --     32.3069                90.2930                24.5452

                     37                     38                     39
                      A                      A                      A
 Frequencies --    809.1457               858.2696               863.4520
 Red. masses --      1.9615                 1.2556                 1.2552
 Frc consts  --      0.7566                 0.5449                 0.5514
 IR Inten    --      9.1527                 3.7596                 0.9323

                     40                     41                     42
                      A                      A                      A
 Frequencies --    868.1770               944.6445               947.6087
 Red. masses --      5.1405                 1.3890                 1.3073
 Frc consts  --      2.2828                 0.7303                 0.6916
 IR Inten    --    300.0481                 3.1565                 1.2912

                     43                     44                     45
                      A                      A                      A
 Frequencies --    959.9688               967.2192               984.2356
 Red. masses --      9.7312                10.8217                 1.3527
 Frc consts  --      5.2836                 5.9648                 0.7721
 IR Inten    --      9.5584                55.0419                 0.0108

                     46                     47                     48
                      A                      A                      A
 Frequencies --    990.6772              1013.4516              1013.5731
 Red. masses --      1.3569                 1.2748                 6.3824
 Frc consts  --      0.7846                 0.7715                 3.8632
 IR Inten    --      0.2196                 0.0344                 8.0272

                     49                     50                     51
                      A                      A                      A
 Frequencies --   1017.2421              1021.8348              1040.6085
 Red. masses --      6.1161                 1.2914                 2.7830
 Frc consts  --      3.7288                 0.7945                 1.7756
 IR Inten    --      0.7180                 0.0413                31.1395

                     52                     53                     54
                      A                      A                      A
 Frequencies --   1047.0190              1054.4623              1081.3115
 Red. masses --      3.1174                 2.8912                 3.4167
 Frc consts  --      2.0135                 1.8940                 2.3537
 IR Inten    --     17.7062                42.5731               112.5784

                     55                     56                     57
                      A                      A                      A
 Frequencies --   1091.2493              1110.8083              1111.1444
 Red. masses --      2.5261                 1.5557                 1.5782
 Frc consts  --      1.7724                 1.1310                 1.1480
 IR Inten    --      7.5178                13.4730                 7.9617

                     58                     59                     60
                      A                      A                      A
 Frequencies --   1130.8791              1190.9376              1196.6210
 Red. masses --      5.2980                 1.1051                 1.0974
 Frc consts  --      3.9920                 0.9234                 0.9258
 IR Inten    --    300.6227                 0.6077                 0.3473

                     61                     62                     63
                      A                      A                      A
 Frequencies --   1203.2930              1207.1572              1229.8847
 Red. masses --      1.1986                 1.1666                 1.8695
 Frc consts  --      1.0225                 1.0016                 1.6661
 IR Inten    --     11.0727                 0.6471                17.9928

                     64                     65                     66
                      A                      A                      A
 Frequencies --   1287.9509              1296.6496              1343.5810
 Red. masses --      8.2436                 5.0912                 1.4468
 Frc consts  --      8.0569                 5.0433                 1.5388
 IR Inten    --    217.7414                62.8639                 1.5320

                     67                     68                     69
                      A                      A                      A
 Frequencies --   1354.5322              1363.7355              1369.4575
 Red. masses --      3.2829                 5.2626                 1.9865
 Frc consts  --      3.5489                 5.7665                 2.1950
 IR Inten    --     61.3034                 9.3386                15.5879

                     70                     71                     72
                      A                      A                      A
 Frequencies --   1374.5452              1484.1530              1492.9691
 Red. masses --      1.6236                 3.2608                 2.1770
 Frc consts  --      1.8074                 4.2318                 2.8589
 IR Inten    --    155.7657               187.3380                21.8968

                     73                     74                     75
                      A                      A                      A
 Frequencies --   1506.1704              1517.5078              1523.1981
 Red. masses --      3.3775                 3.0156                 2.0523
 Frc consts  --      4.5143                 4.0915                 2.8055
 IR Inten    --    292.6974                38.7473                 3.6271

                     76                     77                     78
                      A                      A                      A
 Frequencies --   1553.9027              1627.9848              1641.2482
 Red. masses --      3.1707                 5.5824                 5.4801
 Frc consts  --      4.5108                 8.7170                 8.6974
 IR Inten    --     74.0563               148.3454                 4.8612

                     79                     80                     81
                      A                      A                      A
 Frequencies --   1644.1679              1651.5031              1665.7914
 Red. masses --      5.7899                 6.4881                 5.9513
 Frc consts  --      9.2217                10.4263                 9.7297
 IR Inten    --      0.5849               119.1964                55.4387

                     82                     83                     84
                      A                      A                      A
 Frequencies --   3208.4645              3215.0133              3218.2739
 Red. masses --      1.0859                 1.0886                 1.0868
 Frc consts  --      6.5861                 6.6296                 6.6318
 IR Inten    --      1.4935                 3.7925                 1.3232

                     85                     86                     87
                      A                      A                      A
 Frequencies --   3222.4448              3227.9148              3231.7462
 Red. masses --      1.0926                 1.0893                 1.0958
 Frc consts  --      6.6847                 6.6872                 6.7432
 IR Inten    --     38.7139                11.7904                40.2785

                     88                     89                     90
                      A                      A                      A
 Frequencies --   3235.0456              3239.6034              3242.3841
 Red. masses --      1.0932                 1.0949                 1.0962
 Frc consts  --      6.7408                 6.7700                 6.7900
 IR Inten    --     20.7072                12.5360                13.3189

                     91                     92                     93
                      A                      A                      A
 Frequencies --   3251.7236              3322.6665              3488.9385
 Red. masses --      1.0938                 1.0989                 1.0760
 Frc consts  --      6.8140                 7.1477                 7.7170
 IR Inten    --      5.7258                 3.5567               230.7282

 - Thermochemistry -
 -------------------
 Temperature   298.150 Kelvin.  Pressure   1.00000 Atm.
 Atom     1 has atomic number  8 and mass  15.99491

 Molecular mass:   300.05686 amu.
 Principal axes and moments of inertia in atomic units:
                           1         2         3
     Eigenvalues --  3581.36666********************
           X            0.99999   0.00278  -0.00237
           Y           -0.00277   0.99998   0.00613
           Z            0.00239  -0.00613   0.99998
 This molecule is an asymmetric top.
 Rotational symmetry number  1.
 Warning -- assumption of classical behavior for rotation
           may cause significant error
 Rotational temperatures (Kelvin)      0.02418     0.00745     0.00624
 Rotational constants (GHZ):           0.50393     0.15519     0.13008
 Zero-point vibrational energy     649423.9 (Joules/Mol)
                                  155.21604 (Kcal/Mol)
 Warning -- explicit consideration of  25 degrees of freedom as
           vibrations may cause significant error
 Vibrational temperatures:     26.33    38.05    53.48    60.47    92.80
          (Kelvin)            116.30   163.93   205.20   250.84   319.31
                              363.35   368.87   441.47   468.72   519.88
                              540.67   591.71   593.86   595.08   635.03
                              680.86   699.37   720.29   785.01   812.34
                              899.13   907.53   955.02   988.12  1003.62
                             1012.81  1017.08  1033.31  1100.41  1123.33
                             1134.87  1164.18  1234.86  1242.31  1249.11
                             1359.13  1363.40  1381.18  1391.61  1416.10
                             1425.36  1458.13  1458.31  1463.58  1470.19
                             1497.20  1506.43  1517.14  1555.77  1570.06
                             1598.21  1598.69  1627.08  1713.49  1721.67
                             1731.27  1736.83  1769.53  1853.07  1865.59
                             1933.11  1948.87  1962.11  1970.34  1977.66
                             2135.37  2148.05  2167.04  2183.36  2191.54
                             2235.72  2342.31  2361.39  2365.59  2376.14
                             2396.70  4616.26  4625.69  4630.38  4636.38
                             4644.25  4649.76  4654.51  4661.07  4665.07
                             4678.50  4780.58  5019.80

 Zero-point correction=                           0.247353 (Hartree/Particle)
 Thermal correction to Energy=                    0.264730
 Thermal correction to Enthalpy=                  0.265674
 Thermal correction to Gibbs Free Energy=         0.198853
 Sum of electronic and zero-point Energies=          -1311.842575
 Sum of electronic and thermal Energies=             -1311.825197
 Sum of electronic and thermal Enthalpies=           -1311.824253
 Sum of electronic and thermal Free Energies=        -1311.891074

                     E (Thermal)             CV                S
                      KCal/Mol        Cal/Mol-Kelvin    Cal/Mol-Kelvin
 Total                  166.121             67.226            140.637
 Electronic               0.000              0.000              0.000
 Translational            0.889              2.981             42.993
 Rotational               0.889              2.981             34.712
 Vibrational            164.343             61.265             62.932
 Vibration     1          0.593              1.986              6.811
 Vibration     2          0.593              1.985              6.080
 Vibration     3          0.594              1.982              5.405
 Vibration     4          0.595              1.980              5.161
 Vibration     5          0.597              1.971              4.315
 Vibration     6          0.600              1.962              3.871
 Vibration     7          0.607              1.938              3.201
 Vibration     8          0.616              1.911              2.768
 Vibration     9          0.627              1.874              2.388
 Vibration    10          0.648              1.808              1.943
 Vibration    11          0.664              1.758              1.713
 Vibration    12          0.666              1.752              1.686
 Vibration    13          0.697              1.661              1.379
 Vibration    14          0.710              1.624              1.281
 Vibration    15          0.736              1.552              1.116
 Vibration    16          0.747              1.522              1.056
 Vibration    17          0.775              1.446              0.922
 Vibration    18          0.777              1.443              0.917
 Vibration    19          0.777              1.441              0.914
 Vibration    20          0.801              1.380              0.822
 Vibration    21          0.830              1.309              0.729
 Vibration    22          0.842              1.281              0.694
 Vibration    23          0.856              1.249              0.657
 Vibration    24          0.901              1.149              0.553
 Vibration    25          0.920              1.108              0.515

                           ! Non-Optimized Parameters !
 Normal termination of Gaussian 16 at Mon Sep 14 20:02:05 2020.

 ----------------------------------------------------------------------
 #p b3lyp/6-31G(d) scrf=(iefpcm,read,solvent=water) geom=allcheck guess
 =read
 ----------------------------------------------------------------------

 Structure from the checkpoint file:  "SM42_m0.n.3.pdb.xyz.mst.n.w.chk"
 -------------------
 SM42_m0.n.3.pdb.xyz
 -------------------
 Charge =  0 Multiplicity = 1

 SCF Done:  E(RB3LYP) =  -1312.08992862     A.U. after    4 cycles
 Normal termination of Gaussian 16 at Mon Sep 14 20:02:30 2020.

 -----------------------------
 #p B3LYP/6-31G* geom=allcheck
 -----------------------------

 Structure from the checkpoint file:  "SM42_m0.n.3.pdb.xyz.mst.n.w.chk"
 -------------------
 SM42_m0.n.3.pdb.xyz
 -------------------
 Charge =  0 Multiplicity = 1

 SCF Done:  E(RB3LYP) =  -1312.06931465     A.U. after   15 cycles
 Normal termination of Gaussian 16 at Mon Sep 14 20:03:17 2020.
 Gaussian 16:  ES64L-G16RevB.01 20-Dec-2017

 ----------------------------------------------------------------------
 #p mp2/aug-cc-pVDZ scf=(MaxCycle=2000,NoVarAcc,NoIncFock) maxdisk=180G
 B geom=allcheck
 ----------------------------------------------------------------------

 Structure from the checkpoint file:  "SM42_m0.n.3.pdb.xyz.mst.n.w.chk"
 -------------------
 SM42_m0.n.3.pdb.xyz
 -------------------
 Charge =  0 Multiplicity = 1

                         Standard orientation:
 ---------------------------------------------------------------------
 Center     Atomic      Atomic             Coordinates (Angstroms)
 Number     Number       Type             X           Y           Z
 ---------------------------------------------------------------------
      1          8           0        1.752469   -1.084910    1.936791
      2         16           0        2.427810   -1.196404    0.637587
      3          7           0        1.345669   -1.749110   -0.550580
      4          6           0       -0.030344   -1.528966   -0.452927
      5          7           0       -0.856042   -2.511698   -0.762710
      6          8           0       -2.135398   -1.948786   -0.654688
      7          6           0       -2.032890   -0.656396   -0.262464
      8          6           0       -3.273123    0.090141   -0.085547
      9          6           0       -3.235254    1.432751    0.325372
     10          6           0       -4.419209    2.145053    0.495601
     11          6           0       -5.651060    1.528512    0.258871
     12          6           0       -5.693748    0.193468   -0.149847
     13          6           0       -4.513066   -0.524541   -0.322115
     14          6           0       -0.712218   -0.327655   -0.122248
     15          6           0        2.851091    0.448068    0.090627
     16          6           0        3.497541    0.612391   -1.137678
     17          6           0        3.859944    1.896945   -1.534765
     18          6           0        3.581433    2.991473   -0.709289
     19          6           0        2.941240    2.808391    0.517024
     20          6           0        2.571389    1.527324    0.928935
     21          8           0        3.589463   -2.081766    0.486023
     22          1           0        1.599647   -2.695035   -0.843290
     23          1           0       -2.281489    1.914560    0.510585
     24          1           0       -4.380958    3.181394    0.813262
     25          1           0       -6.571931    2.086044    0.392806
     26          1           0       -6.647187   -0.289532   -0.334736
     27          1           0       -4.541925   -1.560216   -0.638959
     28          1           0       -0.291826    0.623649    0.156756
     29          1           0        3.708703   -0.242177   -1.769420
     30          1           0        4.359259    2.043582   -2.485885
     31          1           0        3.866110    3.989117   -1.024850
     32          1           0        2.729707    3.658507    1.155543
     33          1           0        2.076910    1.360155    1.877510
 ---------------------------------------------------------------------

 SCF Done:  E(RHF) =  -1305.99668832     A.U. after   18 cycles
 E2 =    -0.3110185608D+01 EUMP2 =    -0.13091068739310D+04

 The electronic state is 1-A.
 Alpha  occ. eigenvalues --  -92.24298 -20.65512 -20.57222 -20.57089 -15.63660
 Alpha  occ. eigenvalues --  -15.62626 -11.34372 -11.34023 -11.30084 -11.28642
 Alpha  occ. eigenvalues --  -11.28529 -11.28145 -11.27492 -11.27450 -11.27434
 Alpha  occ. eigenvalues --  -11.26689 -11.26302 -11.26212 -11.25978 -11.25800
 Alpha  occ. eigenvalues --  -11.25157  -9.21044  -6.89580  -6.89539  -6.89426
 Alpha  occ. eigenvalues --   -1.49656  -1.47109  -1.35056  -1.28251  -1.19596
 Alpha  occ. eigenvalues --   -1.18268  -1.14445  -1.09806  -1.07103  -1.05623
 Alpha  occ. eigenvalues --   -1.03718  -1.02959  -0.93633  -0.88381  -0.86863
 Alpha  occ. eigenvalues --   -0.86135  -0.84191  -0.81449  -0.80450  -0.75754
 Alpha  occ. eigenvalues --   -0.74626  -0.71774  -0.69583  -0.69076  -0.67330
 Alpha  occ. eigenvalues --   -0.66848  -0.66283  -0.65170  -0.65027  -0.63659
 Alpha  occ. eigenvalues --   -0.62895  -0.62613  -0.61015  -0.59979  -0.57720
 Alpha  occ. eigenvalues --   -0.55897  -0.55385  -0.53511  -0.53351  -0.52649
 Alpha  occ. eigenvalues --   -0.52490  -0.51354  -0.51162  -0.50215  -0.48560
 Alpha  occ. eigenvalues --   -0.47980  -0.47397  -0.40942  -0.39570  -0.37684
 Alpha  occ. eigenvalues --   -0.37047  -0.35489  -0.32227
 Alpha virt. eigenvalues --    0.02150   0.02929   0.03415   0.04126   0.04397
 Alpha virt. eigenvalues --    0.05053   0.05566   0.05725   0.06011   0.06339
 Alpha virt. eigenvalues --    0.06709   0.07012   0.07680   0.08297   0.08791

 Mulliken charges:
               1
     1  O   -1.192763
     2  S    3.043665
     3  N   -0.838715
     4  C   -0.575008
     5  N   -0.195849
     6  O   -1.098438
     7  C   -0.637783
     8  C    1.478091
     9  C    0.658102
    10  C    0.079609
    11  C    0.543495
    12  C    0.184640
    13  C    0.395522
    14  C    2.504005
    15  C    0.563558
    16  C    0.204501
    17  C    0.438132
    18  C    0.591520
    19  C    0.427742
    20  C    0.345843
    21  O   -1.161227
    22  H   -0.052465
    23  H   -0.561689
    24  H   -0.494420
    25  H   -0.440155
    26  H   -0.445729
    27  H   -0.694425
    28  H   -0.492688
    29  H   -0.610378
    30  H   -0.451122
    31  H   -0.441918
    32  H   -0.467430
    33  H   -0.606226
 Sum of Mulliken charges =  -0.00000

 Dipole moment (field-independent basis, Debye):
    X=             -1.3273    Y=              7.0546    Z=             -2.3372  Tot=              7.5493
 Quadrupole moment (field-independent basis, Debye-Ang):
   XX=           -117.1035   YY=           -125.7381   ZZ=           -135.0114
   XY=              8.7580   XZ=            -12.6008   YZ=              6.0014

 Normal termination of Gaussian 16 at Mon Sep 14 21:13:57 2020.
