 Gaussian 16, Revision B.01,

 ----------------------------------------------------------------------
 #p b3lyp/6-31G(d) opt freq NoSymm scf=(MaxCycle=2000,NoVarAcc,NoIncFoc
 k) scrf=(iefpcm,read,solvent=water)
 ----------------------------------------------------------------------

 -------------------
 SM42_m2.b.7.pdb.xyz
 -------------------
 Symbolic Z-matrix:
 Charge =  1 Multiplicity = 1

 SCF Done:  E(RB3LYP) =  -1312.53183216     A.U. after   13 cycles
 SCF Done:  E(RB3LYP) =  -1312.53165696     A.U. after   10 cycles
 SCF Done:  E(RB3LYP) =  -1312.53172813     A.U. after    9 cycles
 SCF Done:  E(RB3LYP) =  -1312.53182910     A.U. after    9 cycles
 SCF Done:  E(RB3LYP) =  -1312.53183378     A.U. after    8 cycles
 SCF Done:  E(RB3LYP) =  -1312.53172421     A.U. after   10 cycles
 SCF Done:  E(RB3LYP) =  -1312.53172428     A.U. after    8 cycles
 SCF Done:  E(RB3LYP) =  -1312.53182715     A.U. after   10 cycles
 SCF Done:  E(RB3LYP) =  -1312.53183336     A.U. after    8 cycles
 SCF Done:  E(RB3LYP) =  -1312.53183376     A.U. after    7 cycles
 SCF Done:  E(RB3LYP) =  -1312.53183266     A.U. after    9 cycles
 SCF Done:  E(RB3LYP) =  -1312.53171236     A.U. after   10 cycles
 SCF Done:  E(RB3LYP) =  -1312.53171258     A.U. after    6 cycles
 SCF Done:  E(RB3LYP) =  -1312.53182497     A.U. after   10 cycles
 SCF Done:  E(RB3LYP) =  -1312.53183265     A.U. after    9 cycles
 SCF Done:  E(RB3LYP) =  -1312.53171260     A.U. after   10 cycles
 Optimization completed.
    -- Stationary point found.
 Normal termination of Gaussian 16 at Thu Sep 24 06:56:10 2020.

 --------------------------------------------------------------------
 #P Geom=AllCheck Guess=TCheck SCRF=Check GenChk RB3LYP/6-31G(d) Freq
 --------------------------------------------------------------------

 Structure from the checkpoint file:  "SM42_m2.b.7.pdb.xyz.mst.b.w.chk"
 -------------------
 SM42_m2.b.7.pdb.xyz
 -------------------
 Charge =  1 Multiplicity = 1

 SCF Done:  E(RB3LYP) =  -1312.53171260     A.U. after    1 cycles

  Exact polarizability: 370.541 -39.368 206.070  41.195 -19.447 228.406
 Approx polarizability: 396.317 -53.451 239.967  47.132 -22.757 284.274

                      1                      2                      3
                      A                      A                      A
 Frequencies --     11.1299                27.0015                42.2654
 Red. masses --      5.6181                 3.9629                 5.8659
 Frc consts  --      0.0004                 0.0017                 0.0062
 IR Inten    --      0.5115                 0.0835                 0.4629

                      4                      5                      6
                      A                      A                      A
 Frequencies --     46.2112                73.3896                90.7981
 Red. masses --      4.5826                 7.1688                 5.1370
 Frc consts  --      0.0058                 0.0227                 0.0250
 IR Inten    --      0.5668                 5.6089                 0.2752

                      7                      8                      9
                      A                      A                      A
 Frequencies --    119.7008               157.3503               171.1385
 Red. masses --      5.7885                 6.9704                 5.9790
 Frc consts  --      0.0489                 0.1017                 0.1032
 IR Inten    --      7.4303                 7.9337                 1.5263

                     10                     11                     12
                      A                      A                      A
 Frequencies --    211.2248               255.4343               259.0306
 Red. masses --      4.8377                 9.4941                 3.9279
 Frc consts  --      0.1272                 0.3650                 0.1553
 IR Inten    --      8.5858                 2.5049                44.0968

                     13                     14                     15
                      A                      A                      A
 Frequencies --    276.4065               295.5992               304.8118
 Red. masses --      3.9447                 7.1018                 8.8020
 Frc consts  --      0.1776                 0.3656                 0.4818
 IR Inten    --     27.7340                 7.7433                 4.6976

                     16                     17                     18
                      A                      A                      A
 Frequencies --    359.2544               408.2920               409.6264
 Red. masses --      7.7221                 2.9327                 5.4280
 Frc consts  --      0.5872                 0.2880                 0.5366
 IR Inten    --      8.1843                 0.9462                 6.3621

                     19                     20                     21
                      A                      A                      A
 Frequencies --    415.2717               421.4265               457.8181
 Red. masses --      3.4563                 1.6824                 4.6432
 Frc consts  --      0.3512                 0.1760                 0.5734
 IR Inten    --      2.2197                77.4964                11.9587

                     22                     23                     24
                      A                      A                      A
 Frequencies --    473.4646               493.3835               503.0126
 Red. masses --      5.0590                 2.6472                 1.3395
 Frc consts  --      0.6682                 0.3797                 0.1997
 IR Inten    --      5.4432                 2.3951               258.8552

                     25                     26                     27
                      A                      A                      A
 Frequencies --    534.3828               571.4155               624.2581
 Red. masses --      9.2851                10.6273                 6.4527
 Frc consts  --      1.5622                 2.0444                 1.4816
 IR Inten    --    165.6802               424.7561                 0.0613

                     28                     29                     30
                      A                      A                      A
 Frequencies --    629.5799               650.7498               687.3368
 Red. masses --      6.4577                 5.8860                 6.5710
 Frc consts  --      1.5081                 1.4686                 1.8290
 IR Inten    --      0.4015                17.0513                23.3563

                     31                     32                     33
                      A                      A                      A
 Frequencies --    694.2968               699.6497               706.5626
 Red. masses --      2.6187                 1.8726                 3.3867
 Frc consts  --      0.7438                 0.5401                 0.9962
 IR Inten    --     36.7508                37.3703                23.8719

                     34                     35                     36
                      A                      A                      A
 Frequencies --    721.5732               761.5379               767.0325
 Red. masses --      6.7178                 3.1071                 1.6770
 Frc consts  --      2.0608                 1.0617                 0.5813
 IR Inten    --     60.0764               102.3152                 7.6960

                     37                     38                     39
                      A                      A                      A
 Frequencies --    789.8743               831.3062               840.7308
 Red. masses --      1.7842                 3.9234                 1.6462
 Frc consts  --      0.6558                 1.5975                 0.6856
 IR Inten    --     58.3019               218.3226               113.9948

                     40                     41                     42
                      A                      A                      A
 Frequencies --    859.0890               860.6285               949.8050
 Red. masses --      1.2444                 1.2556                 6.8513
 Frc consts  --      0.5411                 0.5479                 3.6416
 IR Inten    --      0.5961                 1.3929                39.5120

                     43                     44                     45
                      A                      A                      A
 Frequencies --    953.3615               954.4780               987.4253
 Red. masses --      1.3225                 1.3776                 1.3577
 Frc consts  --      0.7082                 0.7394                 0.7799
 IR Inten    --      0.7094                 2.4305                 0.0195

                     46                     47                     48
                      A                      A                      A
 Frequencies --    990.7340              1012.6814              1017.3645
 Red. masses --      1.3543                 6.4965                 6.0049
 Frc consts  --      0.7832                 3.9253                 3.6619
 IR Inten    --      0.1007                 8.1149                 4.4964

                     49                     50                     51
                      A                      A                      A
 Frequencies --   1020.9585              1024.4099              1038.0616
 Red. masses --      1.2891                 1.2987                 5.2658
 Frc consts  --      0.7917                 0.8030                 3.3432
 IR Inten    --      0.0139                 0.4495                20.0132

                     52                     53                     54
                      A                      A                      A
 Frequencies --   1046.7355              1049.8709              1067.5169
 Red. masses --      3.2267                 2.7784                 1.7823
 Frc consts  --      2.0829                 1.8043                 1.1967
 IR Inten    --      6.8847                12.4694                39.4476

                     55                     56                     57
                      A                      A                      A
 Frequencies --   1081.1373              1113.0066              1113.9499
 Red. masses --      2.9484                 1.5450                 1.5739
 Frc consts  --      2.0305                 1.1276                 1.1507
 IR Inten    --     88.1161                16.0344                17.7512

                     58                     59                     60
                      A                      A                      A
 Frequencies --   1135.7121              1157.7434              1194.4357
 Red. masses --      6.6992                 5.5140                 1.0986
 Frc consts  --      5.0911                 4.3545                 0.9235
 IR Inten    --    372.2471                38.6862                 1.5529

                     61                     62                     63
                      A                      A                      A
 Frequencies --   1195.7936              1206.9937              1207.7613
 Red. masses --      1.0946                 1.1638                 1.1477
 Frc consts  --      0.9222                 0.9989                 0.9864
 IR Inten    --      0.2997                 4.3474                26.3099

                     64                     65                     66
                      A                      A                      A
 Frequencies --   1233.4273              1269.2822              1323.9821
 Red. masses --      1.8323                 2.8660                 7.8991
 Frc consts  --      1.6424                 2.7205                 8.1582
 IR Inten    --     34.4158                 5.7088               206.4200

                     67                     68                     69
                      A                      A                      A
 Frequencies --   1344.8644              1349.3124              1366.7486
 Red. masses --      1.4933                 2.1035                 4.9389
 Frc consts  --      1.5913                 2.2564                 5.4357
 IR Inten    --      1.8440                99.2579                 4.8445

                     70                     71                     72
                      A                      A                      A
 Frequencies --   1372.4991              1382.2371              1433.3019
 Red. masses --      2.6737                 1.9108                 2.1166
 Frc consts  --      2.9675                 2.1510                 2.5619
 IR Inten    --      3.8407                68.6557               597.6149

                     73                     74                     75
                      A                      A                      A
 Frequencies --   1493.9045              1494.2955              1520.5963
 Red. masses --      2.2808                 2.1973                 2.1856
 Frc consts  --      2.9991                 2.8908                 2.9774
 IR Inten    --     16.8379                56.4347               216.9089

                     76                     77                     78
                      A                      A                      A
 Frequencies --   1520.8151              1540.0549              1601.6970
 Red. masses --      2.2411                 2.4149                 5.6870
 Frc consts  --      3.0540                 3.3746                 8.5959
 IR Inten    --    284.3668               102.3212                18.7719

                     79                     80                     81
                      A                      A                      A
 Frequencies --   1635.7608              1639.0845              1644.3881
 Red. masses --      5.1710                 5.4223                 5.8285
 Frc consts  --      8.1521                 8.5829                 9.2857
 IR Inten    --    614.2387                 8.7147                 1.2899

                     82                     83                     84
                      A                      A                      A
 Frequencies --   1648.0587              1660.5899              3216.1044
 Red. masses --      6.1688                 5.5468                 1.0863
 Frc consts  --      9.8718                 9.0119                 6.6199
 IR Inten    --    586.2061                48.9561                 0.1509

                     85                     86                     87
                      A                      A                      A
 Frequencies --   3222.0352              3223.9459              3231.1669
 Red. masses --      1.0869                 1.0886                 1.0920
 Frc consts  --      6.6483                 6.6667                 6.7172
 IR Inten    --      1.3711                 5.4576                26.1992

                     88                     89                     90
                      A                      A                      A
 Frequencies --   3232.3316              3237.9939              3239.7929
 Red. masses --      1.0900                 1.0950                 1.0941
 Frc consts  --      6.7096                 6.7644                 6.7663
 IR Inten    --     14.7894                27.4825                19.0077

                     91                     92                     93
                      A                      A                      A
 Frequencies --   3243.3439              3251.2735              3253.9802
 Red. masses --      1.0968                 1.0940                 1.0944
 Frc consts  --      6.7980                 6.8135                 6.8274
 IR Inten    --     14.3671                 6.5929                 4.8171

                     94                     95                     96
                      A                      A                      A
 Frequencies --   3357.2881              3508.4049              3553.8486
 Red. masses --      1.0986                 1.0779                 1.0874
 Frc consts  --      7.2954                 7.8170                 8.0917
 IR Inten    --     28.2479               263.0703               758.1363

 - Thermochemistry -
 -------------------
 Temperature   298.150 Kelvin.  Pressure   1.00000 Atm.
 Atom     1 has atomic number  8 and mass  15.99491

 Molecular mass:   301.06469 amu.
 Principal axes and moments of inertia in atomic units:
                           1         2         3
     Eigenvalues --  3178.78001********************
           X            0.99935  -0.03530   0.00683
           Y            0.03378   0.98692   0.15766
           Z           -0.01230  -0.15733   0.98747
 This molecule is an asymmetric top.
 Rotational symmetry number  1.
 Warning -- assumption of classical behavior for rotation
           may cause significant error
 Rotational temperatures (Kelvin)      0.02725     0.00664     0.00623
 Rotational constants (GHZ):           0.56775     0.13836     0.12987
 Zero-point vibrational energy     683542.6 (Joules/Mol)
                                  163.37060 (Kcal/Mol)
 Warning -- explicit consideration of  26 degrees of freedom as
           vibrations may cause significant error
 Vibrational temperatures:     16.01    38.85    60.81    66.49   105.59
          (Kelvin)            130.64   172.22   226.39   246.23   303.91
                              367.51   372.69   397.69   425.30   438.56
                              516.89   587.44   589.36   597.48   606.34
                              658.70   681.21   709.87   723.72   768.86
                              822.14   898.17   905.83   936.28   988.92
                              998.94  1006.64  1016.59  1038.18  1095.68
                             1103.59  1136.45  1196.06  1209.62  1236.04
                             1238.25  1366.56  1371.67  1373.28  1420.68
                             1425.45  1457.02  1463.76  1468.93  1473.90
                             1493.54  1506.02  1510.53  1535.92  1555.52
                             1601.37  1602.73  1634.04  1665.73  1718.53
                             1720.48  1736.59  1737.70  1774.63  1826.21
                             1904.91  1934.96  1941.36  1966.45  1974.72
                             1988.73  2062.20  2149.40  2149.96  2187.80
                             2188.11  2215.80  2304.48  2353.49  2358.28
                             2365.91  2371.19  2389.22  4627.26  4635.79
                             4638.54  4648.93  4650.60  4658.75  4661.34
                             4666.45  4677.86  4681.75  4830.39  5047.81
                             5113.20

 Zero-point correction=                           0.260348 (Hartree/Particle)
 Thermal correction to Energy=                    0.278090
 Thermal correction to Enthalpy=                  0.279034
 Thermal correction to Gibbs Free Energy=         0.211573
 Sum of electronic and zero-point Energies=          -1312.271365
 Sum of electronic and thermal Energies=             -1312.253623
 Sum of electronic and thermal Enthalpies=           -1312.252679
 Sum of electronic and thermal Free Energies=        -1312.320139

                     E (Thermal)             CV                S
                      KCal/Mol        Cal/Mol-Kelvin    Cal/Mol-Kelvin
 Total                  174.504             68.803            141.983
 Electronic               0.000              0.000              0.000
 Translational            0.889              2.981             43.003
 Rotational               0.889              2.981             34.709
 Vibrational            172.726             62.841             64.270
 Vibration     1          0.593              1.987              7.798
 Vibration     2          0.593              1.984              6.038
 Vibration     3          0.595              1.980              5.150
 Vibration     4          0.595              1.979              4.973
 Vibration     5          0.599              1.967              4.060
 Vibration     6          0.602              1.956              3.643
 Vibration     7          0.609              1.933              3.105
 Vibration     8          0.621              1.894              2.581
 Vibration     9          0.626              1.878              2.423
 Vibration    10          0.643              1.824              2.033
 Vibration    11          0.666              1.754              1.693
 Vibration    12          0.668              1.747              1.668
 Vibration    13          0.678              1.717              1.556
 Vibration    14          0.690              1.682              1.442
 Vibration    15          0.696              1.665              1.390
 Vibration    16          0.734              1.556              1.125
 Vibration    17          0.773              1.452              0.933
 Vibration    18          0.774              1.449              0.928
 Vibration    19          0.779              1.437              0.908
 Vibration    20          0.784              1.424              0.887
 Vibration    21          0.816              1.344              0.772
 Vibration    22          0.830              1.309              0.728
 Vibration    23          0.849              1.265              0.675
 Vibration    24          0.858              1.243              0.651
 Vibration    25          0.889              1.174              0.577
 Vibration    26          0.928              1.093              0.502

 Optimization completed.
    -- Stationary point found.
 Normal termination of Gaussian 16 at Thu Sep 24 07:08:41 2020.

 ----------------------------------------------------------------------
 #p b3lyp/6-31G(d) scrf=(iefpcm,read,solvent=water) geom=allcheck guess
 =read
 ----------------------------------------------------------------------

 Structure from the checkpoint file:  "SM42_m2.b.7.pdb.xyz.mst.b.w.chk"
 -------------------
 SM42_m2.b.7.pdb.xyz
 -------------------
 Charge =  1 Multiplicity = 1

 SCF Done:  E(RB3LYP) =  -1312.53162578     A.U. after    7 cycles
 Normal termination of Gaussian 16 at Thu Sep 24 07:09:27 2020.

 -----------------------------
 #p B3LYP/6-31G* geom=allcheck
 -----------------------------

 Structure from the checkpoint file:  "SM42_m2.b.7.pdb.xyz.mst.b.w.chk"
 -------------------
 SM42_m2.b.7.pdb.xyz
 -------------------
 Charge =  1 Multiplicity = 1

 SCF Done:  E(RB3LYP) =  -1312.43232094     A.U. after   16 cycles
 Normal termination of Gaussian 16 at Thu Sep 24 07:10:24 2020.
 Gaussian 16:  ES64L-G16RevB.01 20-Dec-2017

 ----------------------------------------------------------------------
 #p mp2/aug-cc-pVDZ scf=(MaxCycle=2000,NoVarAcc,NoIncFock) maxdisk=120G
 B geom=allcheck
 ----------------------------------------------------------------------

 Structure from the checkpoint file:  "SM42_m2.b.7.pdb.xyz.mst.b.w.chk"
 -------------------
 SM42_m2.b.7.pdb.xyz
 -------------------
 Charge =  1 Multiplicity = 1

                         Standard orientation:
 ---------------------------------------------------------------------
 Center     Atomic      Atomic             Coordinates (Angstroms)
 Number     Number       Type             X           Y           Z
 ---------------------------------------------------------------------
      1          8           0       -3.352515   -2.149239    0.913647
      2         16           0       -2.312804   -1.126151    0.853806
      3          7           0       -1.252572   -1.709257   -0.372830
      4          6           0        0.021352   -1.274374   -0.565205
      5          7           0        0.645658   -1.458339   -1.728100
      6          8           0        1.930435   -0.991278   -1.667948
      7          6           0        2.092783   -0.494596   -0.412781
      8          6           0        3.395044    0.059513   -0.089883
      9          6           0        3.623926    0.574928    1.197327
     10          6           0        4.866893    1.109551    1.518043
     11          6           0        5.887123    1.133404    0.562901
     12          6           0        5.662790    0.620573   -0.717238
     13          6           0        4.422627    0.084410   -1.048027
     14          6           0        0.936424   -0.647264    0.310589
     15          6           0       -3.004889    0.382841    0.217003
     16          6           0       -2.366303    1.593600    0.494945
     17          6           0       -2.912159    2.765300   -0.025819
     18          6           0       -4.070371    2.713566   -0.804960
     19          6           0       -4.697178    1.493046   -1.067090
     20          6           0       -4.166271    0.310865   -0.555881
     21          8           0       -1.458284   -0.828431    2.002339
     22          1           0       -1.737933   -2.121521   -1.172808
     23          1           0        2.833334    0.554075    1.938500
     24          1           0        5.040567    1.506825    2.511695
     25          1           0        6.855609    1.550650    0.816374
     26          1           0        6.454381    0.638430   -1.457652
     27          1           0        4.245905   -0.313860   -2.039852
     28          1           0        0.748681   -0.376262    1.333376
     29          1           0       -1.476240    1.616718    1.110807
     30          1           0       -2.435196    3.716247    0.181243
     31          1           0       -4.489279    3.629528   -1.206267
     32          1           0       -5.600071    1.459986   -1.665762
     33          1           0       -4.642883   -0.643961   -0.739253
     34          1           0        0.348544   -1.825853   -2.632643
 ---------------------------------------------------------------------

 SCF Done:  E(RHF) =  -1306.36388795     A.U. after   18 cycles
 E2 =    -0.3086990861D+01 EUMP2 =    -0.13094508788071D+04

 The electronic state is 1-A.
 Alpha  occ. eigenvalues --  -92.37301 -20.85205 -20.70013 -20.69499 -15.86225
 Alpha  occ. eigenvalues --  -15.79769 -11.55996 -11.52051 -11.40832 -11.40753
 Alpha  occ. eigenvalues --  -11.39632 -11.38863 -11.38689 -11.38665 -11.38509
 Alpha  occ. eigenvalues --  -11.37664 -11.37639 -11.37021 -11.36912 -11.36662
 Alpha  occ. eigenvalues --  -11.36616  -9.33991  -7.02522  -7.02504  -7.02339
 Alpha  occ. eigenvalues --   -1.71188  -1.60191  -1.48074  -1.46497  -1.35968
 Alpha  occ. eigenvalues --   -1.30317  -1.29624  -1.26681  -1.17665  -1.16994
 Alpha  occ. eigenvalues --   -1.15513  -1.15245  -1.07479  -1.04278  -1.02660
 Alpha  occ. eigenvalues --   -0.98315  -0.96628  -0.96181  -0.94888  -0.92933
 Alpha  occ. eigenvalues --   -0.87974  -0.87806  -0.85738  -0.84988  -0.83900
 Alpha  occ. eigenvalues --   -0.79955  -0.79854  -0.78469  -0.77976  -0.76818
 Alpha  occ. eigenvalues --   -0.75114  -0.74973  -0.74612  -0.72538  -0.72438
 Alpha  occ. eigenvalues --   -0.72126  -0.71834  -0.65724  -0.65374  -0.64581
 Alpha  occ. eigenvalues --   -0.63967  -0.63865  -0.63390  -0.62992  -0.62526
 Alpha  occ. eigenvalues --   -0.60772  -0.59977  -0.59067  -0.55687  -0.47955
 Alpha  occ. eigenvalues --   -0.46885  -0.46644  -0.46042
 Alpha virt. eigenvalues --   -0.09388  -0.07923  -0.05350  -0.04777  -0.04418
 Alpha virt. eigenvalues --   -0.03966  -0.03426  -0.03019  -0.02617  -0.02374
 Alpha virt. eigenvalues --   -0.01835  -0.01409  -0.01249  -0.01083  -0.00773

 Mulliken charges:
               1
     1  O   -1.092725
     2  S    2.945295
     3  N   -0.847292
     4  C   -0.102792
     5  N   -0.054947
     6  O   -1.047258
     7  C   -0.276716
     8  C    1.634751
     9  C    0.574278
    10  C    0.140594
    11  C    0.529533
    12  C    0.255832
    13  C    0.317717
    14  C    2.375924
    15  C    0.896183
    16  C    0.233833
    17  C    0.481668
    18  C    0.467641
    19  C    0.661965
    20  C   -0.203646
    21  O   -1.207509
    22  H   -0.085781
    23  H   -0.570007
    24  H   -0.470810
    25  H   -0.412219
    26  H   -0.428033
    27  H   -0.669661
    28  H   -0.671382
    29  H   -0.554356
    30  H   -0.451197
    31  H   -0.415523
    32  H   -0.424270
    33  H   -0.548409
    34  H    0.019319
 Sum of Mulliken charges =   1.00000

 Dipole moment (field-independent basis, Debye):
    X=              3.6452    Y=              1.7317    Z=             -6.4770  Tot=              7.6313
 Quadrupole moment (field-independent basis, Debye-Ang):
   XX=            -61.0206   YY=           -113.3304   ZZ=           -113.4992
   XY=             -6.4310   XZ=             15.9400   YZ=             15.5512

 Normal termination of Gaussian 16 at Thu Sep 24 08:22:37 2020.
