 Gaussian 16, Revision B.01,

 ----------------------------------------------------------------------
 #p b3lyp/6-31G(d) opt freq NoSymm scf=(MaxCycle=2000,NoVarAcc,NoIncFoc
 k) scrf=(iefpcm,read,solvent=water)
 ----------------------------------------------------------------------

 -------------------
 SM42_m0.n.8.pdb.xyz
 -------------------
 Symbolic Z-matrix:
 Charge =  0 Multiplicity = 1

 SCF Done:  E(RB3LYP) =  -1312.08853729     A.U. after   13 cycles
 SCF Done:  E(RB3LYP) =  -1312.08856037     A.U. after    9 cycles
 SCF Done:  E(RB3LYP) =  -1312.08856378     A.U. after    8 cycles
 SCF Done:  E(RB3LYP) =  -1312.08856514     A.U. after    8 cycles
 SCF Done:  E(RB3LYP) =  -1312.08856601     A.U. after    8 cycles
 SCF Done:  E(RB3LYP) =  -1312.08856689     A.U. after    8 cycles
 SCF Done:  E(RB3LYP) =  -1312.08856705     A.U. after    7 cycles
 SCF Done:  E(RB3LYP) =  -1312.08856722     A.U. after    7 cycles
 SCF Done:  E(RB3LYP) =  -1312.08856747     A.U. after    7 cycles
 SCF Done:  E(RB3LYP) =  -1312.08856765     A.U. after    7 cycles
 SCF Done:  E(RB3LYP) =  -1312.08856790     A.U. after    7 cycles
 Optimization completed.
    -- Stationary point found.
 Normal termination of Gaussian 16 at Tue Sep 22 20:15:27 2020.

 --------------------------------------------------------------------
 #P Geom=AllCheck Guess=TCheck SCRF=Check GenChk RB3LYP/6-31G(d) Freq
 --------------------------------------------------------------------

 Structure from the checkpoint file:  "SM42_m0.n.8.pdb.xyz.mst.n.w.chk"
 -------------------
 SM42_m0.n.8.pdb.xyz
 -------------------
 Charge =  0 Multiplicity = 1

 SCF Done:  E(RB3LYP) =  -1312.08856790     A.U. after    1 cycles

  Exact polarizability: 386.982 -31.270 232.930   6.157  15.999 172.712
 Approx polarizability: 397.175 -39.186 291.328   7.126  22.600 220.217

                      1                      2                      3
                      A                      A                      A
 Frequencies --     21.1153                24.8246                31.4331
 Red. masses --      4.5495                 3.9758                 7.5939
 Frc consts  --      0.0012                 0.0014                 0.0044
 IR Inten    --      0.4094                 0.1015                 0.9299

                      4                      5                      6
                      A                      A                      A
 Frequencies --     42.6979                49.7485                89.3959
 Red. masses --      6.3684                 5.9571                 5.7394
 Frc consts  --      0.0068                 0.0087                 0.0270
 IR Inten    --      1.2753                 9.0655                 0.9649

                      7                      8                      9
                      A                      A                      A
 Frequencies --     97.6435               138.4789               179.4262
 Red. masses --      5.6931                 8.0870                 6.7729
 Frc consts  --      0.0320                 0.0914                 0.1285
 IR Inten    --      0.4569                 1.1862                 1.4693

                     10                     11                     12
                      A                      A                      A
 Frequencies --    212.5995               219.4532               267.8316
 Red. masses --      5.2317                 5.5406                 7.2949
 Frc consts  --      0.1393                 0.1572                 0.3083
 IR Inten    --      1.8982                 0.8328                 7.7985

                     13                     14                     15
                      A                      A                      A
 Frequencies --    307.8112               315.3588               362.1073
 Red. masses --      7.7709                 7.7537                 7.0795
 Frc consts  --      0.4338                 0.4543                 0.5469
 IR Inten    --      3.5608                 1.7795                 8.8093

                     16                     17                     18
                      A                      A                      A
 Frequencies --    378.2973               411.5912               412.3298
 Red. masses --      6.3469                 2.9521                 2.9420
 Frc consts  --      0.5352                 0.2947                 0.2947
 IR Inten    --      4.4517                 0.0351                 0.1184

                     19                     20                     21
                      A                      A                      A
 Frequencies --    433.6709               458.8014               486.3291
 Red. masses --      3.8861                 5.8390                 4.6109
 Frc consts  --      0.4306                 0.7242                 0.6425
 IR Inten    --     42.1913                14.4167                 5.1432

                     22                     23                     24
                      A                      A                      A
 Frequencies --    498.8408               522.4543               547.1051
 Red. masses --      4.0417                 7.5183                 2.2516
 Frc consts  --      0.5926                 1.2091                 0.3971
 IR Inten    --      8.4721                47.4292               276.8119

                     25                     26                     27
                      A                      A                      A
 Frequencies --    583.4437               624.6972               631.0005
 Red. masses --      7.9119                 6.4624                 6.4462
 Frc consts  --      1.5868                 1.4859                 1.5122
 IR Inten    --    270.9725                 0.0939                 0.3767

                     28                     29                     30
                      A                      A                      A
 Frequencies --    665.1605               691.6591               696.8043
 Red. masses --      7.5140                 5.9079                 2.5472
 Frc consts  --      1.9587                 1.6652                 0.7287
 IR Inten    --      5.5764                41.4955                27.3848

                     31                     32                     33
                      A                      A                      A
 Frequencies --    703.3738               709.6057               724.4661
 Red. masses --      1.7124                 3.9169                 5.9991
 Frc consts  --      0.4992                 1.1621                 1.8551
 IR Inten    --     43.0912                 4.0427               123.6236

                     34                     35                     36
                      A                      A                      A
 Frequencies --    764.1165               779.1459               793.7695
 Red. masses --      1.5594                 1.4984                 3.3493
 Frc consts  --      0.5364                 0.5359                 1.2433
 IR Inten    --     41.7784                95.9222                27.1503

                     37                     38                     39
                      A                      A                      A
 Frequencies --    806.7739               819.6567               859.6320
 Red. masses --      1.9062                 6.2342                 1.2459
 Frc consts  --      0.7310                 2.4677                 0.5425
 IR Inten    --     14.6775               269.3557                 0.1847

                     40                     41                     42
                      A                      A                      A
 Frequencies --    862.2930               944.2262               950.2028
 Red. masses --      1.2536                 1.3907                 1.3185
 Frc consts  --      0.5492                 0.7305                 0.7014
 IR Inten    --      0.1079                 3.2137                 1.8818

                     43                     44                     45
                      A                      A                      A
 Frequencies --    958.9802               966.5766               983.5090
 Red. masses --      9.3334                 9.5594                 1.3544
 Frc consts  --      5.0572                 5.2620                 0.7719
 IR Inten    --     15.3269                28.8004                 0.0374

                     46                     47                     48
                      A                      A                      A
 Frequencies --    990.0006              1012.6160              1013.3070
 Red. masses --      1.3579                 1.2701                 6.4755
 Frc consts  --      0.7841                 0.7673                 3.9175
 IR Inten    --      0.1343                 0.0959                 7.7236

                     49                     50                     51
                      A                      A                      A
 Frequencies --   1016.9960              1023.6130              1046.4329
 Red. masses --      6.1582                 1.2944                 3.1490
 Frc consts  --      3.7527                 0.7991                 2.0316
 IR Inten    --      0.7682                 0.3231                14.8116

                     52                     53                     54
                      A                      A                      A
 Frequencies --   1049.0243              1061.5718              1081.2531
 Red. masses --      2.4947                 3.8022                 2.7573
 Frc consts  --      1.6175                 2.5245                 1.8993
 IR Inten    --      2.2305               111.5474                85.3476

                     55                     56                     57
                      A                      A                      A
 Frequencies --   1092.2804              1109.5052              1111.4856
 Red. masses --      2.8898                 1.5379                 1.5798
 Frc consts  --      2.0313                 1.1154                 1.1499
 IR Inten    --      1.4739                10.5259                11.0647

                     58                     59                     60
                      A                      A                      A
 Frequencies --   1135.1417              1190.3225              1196.3610
 Red. masses --      5.9020                 1.0983                 1.0986
 Frc consts  --      4.4808                 0.9168                 0.9265
 IR Inten    --    265.9432                 0.4682                 0.3279

                     61                     62                     63
                      A                      A                      A
 Frequencies --   1204.0875              1205.0629              1220.4164
 Red. masses --      1.2527                 1.1738                 1.6821
 Frc consts  --      1.0701                 1.0043                 1.4761
 IR Inten    --     28.9306                 0.7119                26.4837

                     64                     65                     66
                      A                      A                      A
 Frequencies --   1277.5869              1294.6312              1342.2451
 Red. masses --     13.1945                 4.8513                 1.4381
 Frc consts  --     12.6889                 4.7907                 1.5265
 IR Inten    --    335.0312                11.0051                 1.4011

                     67                     68                     69
                      A                      A                      A
 Frequencies --   1344.6012              1363.5381              1369.2082
 Red. masses --      2.5249                 5.8792                 2.1688
 Frc consts  --      2.6896                 6.4403                 2.3956
 IR Inten    --     15.2320                 5.1331                 1.3558

                     70                     71                     72
                      A                      A                      A
 Frequencies --   1391.6361              1488.0996              1492.8164
 Red. masses --      1.8098                 2.7146                 2.1733
 Frc consts  --      2.0650                 3.5418                 2.8535
 IR Inten    --     33.9627               234.2427                28.9777

                     73                     74                     75
                      A                      A                      A
 Frequencies --   1505.2748              1522.1003              1522.4877
 Red. masses --      3.1510                 2.0912                 2.5777
 Frc consts  --      4.2066                 2.8546                 3.5203
 IR Inten    --    499.7625                28.7412               130.4951

                     76                     77                     78
                      A                      A                      A
 Frequencies --   1557.3719              1629.5565              1640.4900
 Red. masses --      3.3724                 5.4396                 5.4380
 Frc consts  --      4.8192                 8.5106                 8.6225
 IR Inten    --     22.1536               111.0305                 7.7229

                     79                     80                     81
                      A                      A                      A
 Frequencies --   1643.9791              1652.6097              1666.2978
 Red. masses --      5.8694                 6.3541                 6.0000
 Frc consts  --      9.3462                10.2246                 9.8153
 IR Inten    --      0.3702               120.3440                73.1383

                     82                     83                     84
                      A                      A                      A
 Frequencies --   3209.0372              3215.4672              3218.4437
 Red. masses --      1.0858                 1.0885                 1.0868
 Frc consts  --      6.5880                 6.6306                 6.6327
 IR Inten    --      1.7582                 4.7448                 1.5090

                     85                     86                     87
                      A                      A                      A
 Frequencies --   3222.9800              3229.0079              3231.5515
 Red. masses --      1.0926                 1.0896                 1.0959
 Frc consts  --      6.6868                 6.6937                 6.7429
 IR Inten    --     39.0652                14.8863                40.8744

                     88                     89                     90
                      A                      A                      A
 Frequencies --   3236.1678              3239.3668              3245.0684
 Red. masses --      1.0935                 1.0948                 1.0949
 Frc consts  --      6.7471                 6.7687                 6.7933
 IR Inten    --     19.8817                12.0407                 8.9313

                     91                     92                     93
                      A                      A                      A
 Frequencies --   3250.4889              3315.6372              3521.4782
 Red. masses --      1.0944                 1.0992                 1.0768
 Frc consts  --      6.8127                 7.1194                 7.8674
 IR Inten    --      7.0462                 2.4286               148.3110

 - Thermochemistry -
 -------------------
 Temperature   298.150 Kelvin.  Pressure   1.00000 Atm.
 Atom     1 has atomic number  8 and mass  15.99491

 Molecular mass:   300.05686 amu.
 Principal axes and moments of inertia in atomic units:
                           1         2         3
     Eigenvalues --  1895.09625********************
           X            1.00000  -0.00269   0.00106
           Y            0.00270   0.99996  -0.00867
           Z           -0.00104   0.00867   0.99996
 This molecule is an asymmetric top.
 Rotational symmetry number  1.
 Warning -- assumption of classical behavior for rotation
           may cause significant error
 Rotational temperatures (Kelvin)      0.04570     0.00504     0.00482
 Rotational constants (GHZ):           0.95232     0.10507     0.10037
 Zero-point vibrational energy     649734.6 (Joules/Mol)
                                  155.29030 (Kcal/Mol)
 Warning -- explicit consideration of  25 degrees of freedom as
           vibrations may cause significant error
 Vibrational temperatures:     30.38    35.72    45.23    61.43    71.58
          (Kelvin)            128.62   140.49   199.24   258.15   305.88
                              315.74   385.35   442.87   453.73   520.99
                              544.29   592.19   593.25   623.96   660.11
                              699.72   717.72   751.70   787.16   839.45
                              898.80   907.87   957.02   995.14  1002.55
                             1012.00  1020.96  1042.35  1099.39  1121.02
                             1142.06  1160.77  1179.30  1236.82  1240.65
                             1358.53  1367.13  1379.76  1390.69  1415.05
                             1424.39  1456.93  1457.92  1463.23  1472.75
                             1505.58  1509.31  1527.36  1555.68  1571.55
                             1596.33  1599.18  1633.22  1712.61  1721.30
                             1732.41  1733.82  1755.91  1838.16  1862.69
                             1931.19  1934.58  1961.83  1969.99  2002.25
                             2141.04  2147.83  2165.75  2189.96  2190.52
                             2240.71  2344.57  2360.30  2365.32  2377.74
                             2397.43  4617.09  4626.34  4630.62  4637.15
                             4645.82  4649.48  4656.12  4660.73  4668.93
                             4676.73  4770.46  5066.62

 Zero-point correction=                           0.247471 (Hartree/Particle)
 Thermal correction to Energy=                    0.264879
 Thermal correction to Enthalpy=                  0.265823
 Thermal correction to Gibbs Free Energy=         0.198624
 Sum of electronic and zero-point Energies=          -1311.841097
 Sum of electronic and thermal Energies=             -1311.823689
 Sum of electronic and thermal Enthalpies=           -1311.822745
 Sum of electronic and thermal Free Energies=        -1311.889944

                     E (Thermal)             CV                S
                      KCal/Mol        Cal/Mol-Kelvin    Cal/Mol-Kelvin
 Total                  166.214             67.104            141.433
 Electronic               0.000              0.000              0.000
 Translational            0.889              2.981             42.993
 Rotational               0.889              2.981             34.725
 Vibrational            164.436             61.143             63.714
 Vibration     1          0.593              1.985              6.526
 Vibration     2          0.593              1.985              6.205
 Vibration     3          0.594              1.983              5.737
 Vibration     4          0.595              1.980              5.130
 Vibration     5          0.595              1.978              4.827
 Vibration     6          0.602              1.957              3.673
 Vibration     7          0.603              1.951              3.501
 Vibration     8          0.614              1.915              2.825
 Vibration     9          0.629              1.868              2.334
 Vibration    10          0.644              1.822              2.021
 Vibration    11          0.647              1.811              1.964
 Vibration    12          0.673              1.732              1.610
 Vibration    13          0.698              1.659              1.374
 Vibration    14          0.703              1.644              1.334
 Vibration    15          0.736              1.550              1.113
 Vibration    16          0.749              1.516              1.046
 Vibration    17          0.776              1.445              0.921
 Vibration    18          0.776              1.443              0.918
 Vibration    19          0.794              1.397              0.847
 Vibration    20          0.817              1.341              0.770
 Vibration    21          0.842              1.280              0.693
 Vibration    22          0.854              1.253              0.661
 Vibration    23          0.877              1.200              0.604
 Vibration    24          0.902              1.146              0.550
 Vibration    25          0.940              1.067              0.479

                           ! Non-Optimized Parameters !
 Normal termination of Gaussian 16 at Tue Sep 22 20:26:09 2020.

 ----------------------------------------------------------------------
 #p b3lyp/6-31G(d) scrf=(iefpcm,read,solvent=water) geom=allcheck guess
 =read
 ----------------------------------------------------------------------

 Structure from the checkpoint file:  "SM42_m0.n.8.pdb.xyz.mst.n.w.chk"
 -------------------
 SM42_m0.n.8.pdb.xyz
 -------------------
 Charge =  0 Multiplicity = 1

 SCF Done:  E(RB3LYP) =  -1312.08857032     A.U. after    5 cycles
 Normal termination of Gaussian 16 at Tue Sep 22 20:26:39 2020.

 -----------------------------
 #p B3LYP/6-31G* geom=allcheck
 -----------------------------

 Structure from the checkpoint file:  "SM42_m0.n.8.pdb.xyz.mst.n.w.chk"
 -------------------
 SM42_m0.n.8.pdb.xyz
 -------------------
 Charge =  0 Multiplicity = 1

 SCF Done:  E(RB3LYP) =  -1312.05907256     A.U. after   15 cycles
 Normal termination of Gaussian 16 at Tue Sep 22 20:27:24 2020.
 Gaussian 16:  ES64L-G16RevB.01 20-Dec-2017

 ----------------------------------------------------------------------
 #p mp2/aug-cc-pVDZ scf=(MaxCycle=2000,NoVarAcc,NoIncFock) maxdisk=120G
 B geom=allcheck
 ----------------------------------------------------------------------

 Structure from the checkpoint file:  "SM42_m0.n.8.pdb.xyz.mst.n.w.chk"
 -------------------
 SM42_m0.n.8.pdb.xyz
 -------------------
 Charge =  0 Multiplicity = 1

                         Standard orientation:
 ---------------------------------------------------------------------
 Center     Atomic      Atomic             Coordinates (Angstroms)
 Number     Number       Type             X           Y           Z
 ---------------------------------------------------------------------
      1          8           0       -2.149791   -2.075471   -0.659827
      2         16           0       -2.169798   -0.957717    0.291598
      3          7           0       -0.974924    0.153795   -0.222141
      4          6           0        0.382061   -0.188438   -0.183613
      5          7           0        0.801069   -1.433853   -0.306514
      6          8           0        2.202312   -1.340172   -0.259602
      7          6           0        2.569719   -0.044146   -0.119325
      8          6           0        3.997854    0.246288   -0.054135
      9          6           0        4.440774    1.571114    0.095836
     10          6           0        5.803191    1.849317    0.160306
     11          6           0        6.737511    0.813475    0.075699
     12          6           0        6.302283   -0.505308   -0.073785
     13          6           0        4.940663   -0.791005   -0.138439
     14          6           0        1.451247    0.740256   -0.063361
     15          6           0       -3.626626    0.038223    0.044451
     16          6           0       -4.107973    0.230388   -1.253372
     17          6           0       -5.261465    0.992303   -1.428730
     18          6           0       -5.914435    1.540958   -0.320727
     19          6           0       -5.422338    1.331957    0.969186
     20          6           0       -4.268048    0.573327    1.161967
     21          8           0       -2.033001   -1.257867    1.725554
     22          1           0       -1.162528    1.085569    0.151302
     23          1           0        3.719368    2.378130    0.162352
     24          1           0        6.136290    2.874878    0.276608
     25          1           0        7.798308    1.034017    0.126312
     26          1           0        7.023392   -1.312881   -0.139979
     27          1           0        4.599265   -1.812788   -0.253909
     28          1           0        1.383977    1.810006    0.047626
     29          1           0       -3.596536   -0.208219   -2.101676
     30          1           0       -5.651488    1.153857   -2.427262
     31          1           0       -6.812792    2.131210   -0.464644
     32          1           0       -5.935752    1.754981    1.825097
     33          1           0       -3.870420    0.390937    2.152454
 ---------------------------------------------------------------------

 SCF Done:  E(RHF) =  -1305.98514012     A.U. after   18 cycles
 E2 =    -0.3109263827D+01 EUMP2 =    -0.13090944039436D+04

 The electronic state is 1-A.
 Alpha  occ. eigenvalues --  -92.23384 -20.65044 -20.56111 -20.55548 -15.63768
 Alpha  occ. eigenvalues --  -15.61814 -11.33988 -11.33903 -11.29768 -11.28406
 Alpha  occ. eigenvalues --  -11.28370 -11.28020 -11.27300 -11.27272 -11.27245
 Alpha  occ. eigenvalues --  -11.26590 -11.26170 -11.26055 -11.25856 -11.25652
 Alpha  occ. eigenvalues --  -11.25141  -9.20133  -6.88637  -6.88624  -6.88538
 Alpha  occ. eigenvalues --   -1.49046  -1.45716  -1.33413  -1.27945  -1.19426
 Alpha  occ. eigenvalues --   -1.18109  -1.14256  -1.09682  -1.06765  -1.05425
 Alpha  occ. eigenvalues --   -1.03577  -1.02798  -0.93614  -0.88291  -0.86534
 Alpha  occ. eigenvalues --   -0.85520  -0.83916  -0.81420  -0.78558  -0.75707
 Alpha  occ. eigenvalues --   -0.74771  -0.71637  -0.69387  -0.67816  -0.67041
 Alpha  occ. eigenvalues --   -0.66426  -0.65845  -0.64859  -0.64476  -0.63391
 Alpha  occ. eigenvalues --   -0.62565  -0.62307  -0.60895  -0.60122  -0.56539
 Alpha  occ. eigenvalues --   -0.55785  -0.55313  -0.53798  -0.53105  -0.52600
 Alpha  occ. eigenvalues --   -0.52294  -0.51014  -0.50609  -0.48860  -0.48132
 Alpha  occ. eigenvalues --   -0.46469  -0.45229  -0.40751  -0.38676  -0.37871
 Alpha  occ. eigenvalues --   -0.36844  -0.35351  -0.32057
 Alpha virt. eigenvalues --    0.02218   0.02794   0.03338   0.03691   0.04199
 Alpha virt. eigenvalues --    0.04864   0.05297   0.05655   0.06281   0.06467
 Alpha virt. eigenvalues --    0.06723   0.06978   0.07466   0.08385   0.09384

 Mulliken charges:
               1
     1  O   -1.177970
     2  S    3.189336
     3  N   -0.966917
     4  C   -0.248851
     5  N   -0.203009
     6  O   -1.092387
     7  C    0.127801
     8  C    1.384806
     9  C    0.664381
    10  C    0.013773
    11  C    0.552189
    12  C    0.207757
    13  C    0.389042
    14  C    1.685491
    15  C    0.651988
    16  C    0.027838
    17  C    0.524567
    18  C    0.483947
    19  C    0.596173
    20  C    0.064768
    21  O   -1.227321
    22  H   -0.054519
    23  H   -0.586323
    24  H   -0.483456
    25  H   -0.436536
    26  H   -0.438848
    27  H   -0.653254
    28  H   -0.572691
    29  H   -0.563165
    30  H   -0.437986
    31  H   -0.435333
    32  H   -0.440807
    33  H   -0.544480
 Sum of Mulliken charges =  -0.00000

 Dipole moment (field-independent basis, Debye):
    X=             -0.4270    Y=              8.4310    Z=             -0.5280  Tot=              8.4583
 Quadrupole moment (field-independent basis, Debye-Ang):
   XX=            -82.4357   YY=           -133.9223   ZZ=           -133.5939
   XY=            -13.0104   XZ=              3.4615   YZ=              2.3432

 Normal termination of Gaussian 16 at Tue Sep 22 21:18:54 2020.
