 Gaussian 16, Revision B.01,

 ----------------------------------------------------------------------
 #p b3lyp/6-31G(d) opt freq NoSymm scf=(MaxCycle=2000,NoVarAcc,NoIncFoc
 k) scrf=(iefpcm,read,solvent=water)
 ----------------------------------------------------------------------

 -------------------
 SM42_m1.a.2.pdb.xyz
 -------------------
 Symbolic Z-matrix:
 Charge = -1 Multiplicity = 1

 SCF Done:  E(RB3LYP) =  -1311.62207640     A.U. after   13 cycles
 SCF Done:  E(RB3LYP) =  -1311.62189044     A.U. after   10 cycles
 SCF Done:  E(RB3LYP) =  -1311.62193993     A.U. after    9 cycles
 SCF Done:  E(RB3LYP) =  -1311.62207226     A.U. after   10 cycles
 SCF Done:  E(RB3LYP) =  -1311.62207773     A.U. after    9 cycles
 SCF Done:  E(RB3LYP) =  -1311.62191242     A.U. after   10 cycles
 SCF Done:  E(RB3LYP) =  -1311.62192323     A.U. after    9 cycles
 SCF Done:  E(RB3LYP) =  -1311.62207009     A.U. after   10 cycles
 SCF Done:  E(RB3LYP) =  -1311.62207744     A.U. after    9 cycles
 SCF Done:  E(RB3LYP) =  -1311.62207779     A.U. after    8 cycles
 SCF Done:  E(RB3LYP) =  -1311.62191502     A.U. after   11 cycles
 SCF Done:  E(RB3LYP) =  -1311.62191508     A.U. after    7 cycles
 SCF Done:  E(RB3LYP) =  -1311.62206897     A.U. after   10 cycles
 SCF Done:  E(RB3LYP) =  -1311.62207756     A.U. after    9 cycles
 SCF Done:  E(RB3LYP) =  -1311.62191446     A.U. after   11 cycles
 SCF Done:  E(RB3LYP) =  -1311.62191467     A.U. after    6 cycles
 Optimization completed on the basis of negligible forces.
    -- Stationary point found.
 Normal termination of Gaussian 16 at Thu Sep 24 06:25:08 2020.

 --------------------------------------------------------------------
 #P Geom=AllCheck Guess=TCheck SCRF=Check GenChk RB3LYP/6-31G(d) Freq
 --------------------------------------------------------------------

 Structure from the checkpoint file:  "SM42_m1.a.2.pdb.xyz.mst.a.w.chk"
 -------------------
 SM42_m1.a.2.pdb.xyz
 -------------------
 Charge = -1 Multiplicity = 1

 SCF Done:  E(RB3LYP) =  -1311.62191467     A.U. after    1 cycles

  Exact polarizability: 320.278 -31.062 228.524  10.771 -46.171 258.039
 Approx polarizability: 343.402 -38.912 261.390  12.248 -57.314 327.060

                      1                      2                      3
                      A                      A                      A
 Frequencies --     13.8480                23.7070                26.0775
 Red. masses --      5.3231                 3.9827                 4.3038
 Frc consts  --      0.0006                 0.0013                 0.0017
 IR Inten    --      2.9335                 1.4299                 0.4652

                      4                      5                      6
                      A                      A                      A
 Frequencies --     46.1528                69.8573                88.1221
 Red. masses --      7.4401                 7.3477                 5.1193
 Frc consts  --      0.0093                 0.0211                 0.0234
 IR Inten    --      2.5941                 2.3250                 4.7564

                      7                      8                      9
                      A                      A                      A
 Frequencies --    130.8672               152.7566               180.5136
 Red. masses --      6.6530                 6.6106                 6.3674
 Frc consts  --      0.0671                 0.0909                 0.1222
 IR Inten    --      2.5473                 7.8628                 1.4739

                     10                     11                     12
                      A                      A                      A
 Frequencies --    222.4352               267.5136               289.6831
 Red. masses --      5.3655                 9.5385                 6.5067
 Frc consts  --      0.1564                 0.4022                 0.3217
 IR Inten    --      3.0460                 2.3969                 1.6269

                     13                     14                     15
                      A                      A                      A
 Frequencies --    303.4074               322.7517               362.3353
 Red. masses --      8.4855                 8.0423                 8.3779
 Frc consts  --      0.4602                 0.4936                 0.6481
 IR Inten    --      9.1100                 0.7675                 2.3823

                     16                     17                     18
                      A                      A                      A
 Frequencies --    377.8393               411.9115               413.1242
 Red. masses --      9.2727                 2.9789                 3.0034
 Frc consts  --      0.7800                 0.2978                 0.3020
 IR Inten    --      1.3316                 0.0068                 0.9742

                     19                     20                     21
                      A                      A                      A
 Frequencies --    426.4900               455.6698               495.5224
 Red. masses --     10.0178                 5.8916                 4.3786
 Frc consts  --      1.0736                 0.7207                 0.6335
 IR Inten    --      6.9415                 3.6363                 1.4672

                     22                     23                     24
                      A                      A                      A
 Frequencies --    501.0310               551.0095               582.5976
 Red. masses --      4.7422                10.9147                 9.4916
 Frc consts  --      0.7014                 1.9525                 1.8981
 IR Inten    --      7.0241               153.5373               335.8076

                     25                     26                     27
                      A                      A                      A
 Frequencies --    627.3089               631.2266               663.3233
 Red. masses --      6.4267                 6.4398                 7.3547
 Frc consts  --      1.4900                 1.5118                 1.9066
 IR Inten    --      0.2326                 0.0362                 1.2241

                     28                     29                     30
                      A                      A                      A
 Frequencies --    680.3442               702.1174               705.2175
 Red. masses --      7.5211                 2.4798                 1.8502
 Frc consts  --      2.0511                 0.7203                 0.5421
 IR Inten    --     30.8649                53.7264                48.7145

                     31                     32                     33
                      A                      A                      A
 Frequencies --    707.8986               717.3752               741.4563
 Red. masses --      5.3450                 4.3998                 6.7292
 Frc consts  --      1.5781                 1.3341                 2.1796
 IR Inten    --      4.8388                 5.8995               116.7906

                     34                     35                     36
                      A                      A                      A
 Frequencies --    764.5080               783.2444               814.4585
 Red. masses --      1.5536                 1.6617                 1.6195
 Frc consts  --      0.5350                 0.6006                 0.6330
 IR Inten    --     27.6739                75.1643                28.2468

                     37                     38                     39
                      A                      A                      A
 Frequencies --    862.1438               863.4939               919.2650
 Red. masses --      1.2475                 1.2523                12.3870
 Frc consts  --      0.5463                 0.5502                 6.1673
 IR Inten    --      0.1304                 0.0907                54.6286

                     40                     41                     42
                      A                      A                      A
 Frequencies --    932.6298               938.9515               940.7614
 Red. masses --     10.5270                 1.3305                 1.3953
 Frc consts  --      5.3948                 0.6911                 0.7276
 IR Inten    --    195.5380                 2.5280                 3.4891

                     43                     44                     45
                      A                      A                      A
 Frequencies --    956.5572               981.5771               985.8103
 Red. masses --      8.9458                 1.3494                 1.3510
 Frc consts  --      4.8227                 0.7660                 0.7736
 IR Inten    --     44.7505                 0.0287                 0.5030

                     46                     47                     48
                      A                      A                      A
 Frequencies --   1009.7117              1012.1500              1013.8290
 Red. masses --      1.2599                 1.3077                 5.3644
 Frc consts  --      0.7568                 0.7893                 3.2486
 IR Inten    --      0.1196                 0.2580                10.5815

                     49                     50                     51
                      A                      A                      A
 Frequencies --   1016.3751              1037.8037              1049.8223
 Red. masses --      6.1137                 3.3732                 2.6240
 Frc consts  --      3.7210                 2.1405                 1.7039
 IR Inten    --      0.4465                62.2578                 9.3447

                     52                     53                     54
                      A                      A                      A
 Frequencies --   1055.2471              1078.8251              1096.6013
 Red. masses --      2.4197                 2.6868                 6.0909
 Frc consts  --      1.5876                 1.8424                 4.3155
 IR Inten    --     23.4514               296.5382               158.4840

                     55                     56                     57
                      A                      A                      A
 Frequencies --   1105.1234              1107.8230              1121.3734
 Red. masses --      1.6082                 1.5766                 3.5004
 Frc consts  --      1.1572                 1.1400                 2.5934
 IR Inten    --     27.4713                23.9927               185.4222

                     58                     59                     60
                      A                      A                      A
 Frequencies --   1186.4323              1187.2064              1199.4022
 Red. masses --      1.0967                 1.0958                 1.2942
 Frc consts  --      0.9095                 0.9100                 1.0970
 IR Inten    --      0.4526                 0.3491                32.8802

                     61                     62                     63
                      A                      A                      A
 Frequencies --   1201.4516              1209.7454              1231.0967
 Red. masses --      1.1517                 5.6293                 2.5002
 Frc consts  --      0.9795                 4.8539                 2.2326
 IR Inten    --      8.0656               317.9941               166.9910

                     64                     65                     66
                      A                      A                      A
 Frequencies --   1296.4211              1336.7686              1351.4522
 Red. masses --      4.4478                 1.4786                 3.3108
 Frc consts  --      4.4044                 1.5567                 3.5627
 IR Inten    --     18.4267                 4.3972                43.6636

                     67                     68                     69
                      A                      A                      A
 Frequencies --   1359.9006              1367.8246              1437.9664
 Red. masses --      5.3108                 2.0270                 7.3291
 Frc consts  --      5.7866                 2.2344                 8.9289
 IR Inten    --      1.1804                 2.8731               344.5584

                     70                     71                     72
                      A                      A                      A
 Frequencies --   1476.8014              1488.3094              1497.5504
 Red. masses --      5.5430                 2.2008                 2.5604
 Frc consts  --      7.1226                 2.8722                 3.3832
 IR Inten    --    563.9041                26.9006               170.7769

                     73                     74                     75
                      A                      A                      A
 Frequencies --   1523.5587              1540.8586              1625.7437
 Red. masses --      2.0906                 2.4054                 5.7913
 Frc consts  --      2.8592                 3.3649                 9.0184
 IR Inten    --      6.2971               151.7871               145.9107

                     76                     77                     78
                      A                      A                      A
 Frequencies --   1642.2511              1644.7841              1649.7094
 Red. masses --      5.8916                 5.5618                 6.8668
 Frc consts  --      9.3618                 8.8652                11.0108
 IR Inten    --      0.0463                 1.0054               109.8420

                     79                     80                     81
                      A                      A                      A
 Frequencies --   1666.2848              3204.5177              3206.7183
 Red. masses --      6.0754                 1.0856                 1.0859
 Frc consts  --      9.9386                 6.5683                 6.5789
 IR Inten    --     26.3878                 2.4032                 0.4340

                     82                     83                     84
                      A                      A                      A
 Frequencies --   3211.3173              3215.7175              3220.3774
 Red. masses --      1.0885                 1.0890                 1.0925
 Frc consts  --      6.6139                 6.6347                 6.6755
 IR Inten    --      9.6109                17.2016                43.4325

                     85                     86                     87
                      A                      A                      A
 Frequencies --   3224.1546              3228.4735              3232.4853
 Red. masses --      1.0930                 1.0960                 1.0959
 Frc consts  --      6.6941                 6.7305                 6.7468
 IR Inten    --     33.6997                41.6110                25.8170

                     88                     89                     90
                      A                      A                      A
 Frequencies --   3237.4454              3244.2586              3329.2108
 Red. masses --      1.0941                 1.0927                 1.0971
 Frc consts  --      6.7566                 6.7759                 7.1647
 IR Inten    --     12.3265                 8.6092                 4.9834

 - Thermochemistry -
 -------------------
 Temperature   298.150 Kelvin.  Pressure   1.00000 Atm.
 Atom     1 has atomic number  8 and mass  15.99491

 Molecular mass:   299.04904 amu.
 Principal axes and moments of inertia in atomic units:
                           1         2         3
     Eigenvalues --  3578.50677********************
           X            0.99854  -0.00828   0.05344
           Y           -0.00682   0.96105   0.27629
           Z           -0.05365  -0.27625   0.95959
 This molecule is an asymmetric top.
 Rotational symmetry number  1.
 Warning -- assumption of classical behavior for rotation
           may cause significant error
 Rotational temperatures (Kelvin)      0.02420     0.00748     0.00671
 Rotational constants (GHZ):           0.50433     0.15593     0.13985
 Zero-point vibrational energy     616171.2 (Joules/Mol)
                                  147.26844 (Kcal/Mol)
 Warning -- explicit consideration of  24 degrees of freedom as
           vibrations may cause significant error
 Vibrational temperatures:     19.92    34.11    37.52    66.40   100.51
          (Kelvin)            126.79   188.29   219.78   259.72   320.03
                              384.89   416.79   436.54   464.37   521.32
                              543.63   592.65   594.39   613.62   655.61
                              712.95   720.87   792.78   838.23   902.56
                              908.19   954.37   978.86  1010.19  1014.65
                             1018.51  1032.14  1066.79  1099.96  1126.91
                             1171.82  1240.43  1242.38  1322.62  1341.85
                             1350.94  1353.55  1376.27  1412.27  1418.36
                             1452.75  1456.26  1458.67  1462.34  1493.17
                             1510.46  1518.27  1552.19  1577.76  1590.03
                             1593.91  1613.41  1707.01  1708.13  1725.67
                             1728.62  1740.55  1771.27  1865.26  1923.31
                             1944.44  1956.59  1967.99  2068.91  2124.79
                             2141.35  2154.64  2192.06  2216.95  2339.08
                             2362.83  2366.48  2373.56  2397.41  4610.59
                             4613.75  4620.37  4626.70  4633.40  4638.84
                             4645.05  4650.83  4657.96  4667.76  4789.99

 Zero-point correction=                           0.234687 (Hartree/Particle)
 Thermal correction to Energy=                    0.251674
 Thermal correction to Enthalpy=                  0.252618
 Thermal correction to Gibbs Free Energy=         0.186145
 Sum of electronic and zero-point Energies=          -1311.387227
 Sum of electronic and thermal Energies=             -1311.370241
 Sum of electronic and thermal Enthalpies=           -1311.369297
 Sum of electronic and thermal Free Energies=        -1311.435770

                     E (Thermal)             CV                S
                      KCal/Mol        Cal/Mol-Kelvin    Cal/Mol-Kelvin
 Total                  157.928             65.733            139.905
 Electronic               0.000              0.000              0.000
 Translational            0.889              2.981             42.983
 Rotational               0.889              2.981             34.635
 Vibrational            156.150             59.771             62.287
 Vibration     1          0.593              1.986              7.364
 Vibration     2          0.593              1.985              6.297
 Vibration     3          0.593              1.985              6.107
 Vibration     4          0.595              1.979              4.976
 Vibration     5          0.598              1.968              4.157
 Vibration     6          0.601              1.958              3.701
 Vibration     7          0.612              1.922              2.933
 Vibration     8          0.619              1.900              2.638
 Vibration     9          0.629              1.866              2.323
 Vibration    10          0.648              1.807              1.939
 Vibration    11          0.673              1.733              1.612
 Vibration    12          0.686              1.693              1.476
 Vibration    13          0.695              1.667              1.398
 Vibration    14          0.708              1.630              1.296
 Vibration    15          0.736              1.550              1.112
 Vibration    16          0.748              1.517              1.048
 Vibration    17          0.776              1.444              0.920
 Vibration    18          0.777              1.442              0.916
 Vibration    19          0.788              1.413              0.870
 Vibration    20          0.814              1.348              0.779
 Vibration    21          0.851              1.260              0.669
 Vibration    22          0.856              1.248              0.656
 Vibration    23          0.906              1.137              0.542
 Vibration    24          0.939              1.069              0.481

 Optimization completed.
    -- Stationary point found.
 Normal termination of Gaussian 16 at Thu Sep 24 06:35:55 2020.

 ----------------------------------------------------------------------
 #p b3lyp/6-31G(d) scrf=(iefpcm,read,solvent=water) geom=allcheck guess
 =read
 ----------------------------------------------------------------------

 Structure from the checkpoint file:  "SM42_m1.a.2.pdb.xyz.mst.a.w.chk"
 -------------------
 SM42_m1.a.2.pdb.xyz
 -------------------
 Charge = -1 Multiplicity = 1

 SCF Done:  E(RB3LYP) =  -1311.62191253     A.U. after    7 cycles
 Normal termination of Gaussian 16 at Thu Sep 24 06:36:36 2020.

 -----------------------------
 #p B3LYP/6-31G* geom=allcheck
 -----------------------------

 Structure from the checkpoint file:  "SM42_m1.a.2.pdb.xyz.mst.a.w.chk"
 -------------------
 SM42_m1.a.2.pdb.xyz
 -------------------
 Charge = -1 Multiplicity = 1

 SCF Done:  E(RB3LYP) =  -1311.52582936     A.U. after   15 cycles
 Normal termination of Gaussian 16 at Thu Sep 24 06:37:24 2020.
 Gaussian 16:  ES64L-G16RevB.01 20-Dec-2017

 ----------------------------------------------------------------------
 #p mp2/aug-cc-pVDZ scf=(MaxCycle=2000,NoVarAcc,NoIncFock) maxdisk=120G
 B geom=allcheck
 ----------------------------------------------------------------------

 Structure from the checkpoint file:  "SM42_m1.a.2.pdb.xyz.mst.a.w.chk"
 -------------------
 SM42_m1.a.2.pdb.xyz
 -------------------
 Charge = -1 Multiplicity = 1

                         Standard orientation:
 ---------------------------------------------------------------------
 Center     Atomic      Atomic             Coordinates (Angstroms)
 Number     Number       Type             X           Y           Z
 ---------------------------------------------------------------------
      1          8           0        3.628812   -1.914708   -0.869857
      2         16           0        2.353628   -1.160547   -0.791100
      3          7           0        1.421914   -1.945496    0.249998
      4          6           0        0.114780   -1.552089    0.412459
      5          7           0       -0.575674   -2.110312    1.409934
      6          8           0       -1.876371   -1.553818    1.328460
      7          6           0       -1.923475   -0.677940    0.297986
      8          6           0       -3.193868    0.002059    0.055310
      9          6           0       -4.323889   -0.292145    0.835561
     10          6           0       -5.531972    0.359127    0.597467
     11          6           0       -5.629598    1.311047   -0.420047
     12          6           0       -4.508762    1.608848   -1.200243
     13          6           0       -3.299138    0.961110   -0.965932
     14          6           0       -0.709815   -0.629715   -0.320494
     15          6           0        2.757367    0.441254   -0.066664
     16          6           0        3.277510    0.495655    1.229655
     17          6           0        3.613280    1.730875    1.780692
     18          6           0        3.429050    2.902640    1.040268
     19          6           0        2.908511    2.839416   -0.252571
     20          6           0        2.571009    1.604852   -0.811850
     21          8           0        1.711524   -0.853095   -2.099882
     22          1           0       -4.247191   -1.031788    1.623661
     23          1           0       -6.397860    0.122513    1.206824
     24          1           0       -6.571169    1.817421   -0.604160
     25          1           0       -4.576873    2.347705   -1.991731
     26          1           0       -2.431716    1.197705   -1.572351
     27          1           0       -0.420198   -0.058841   -1.185591
     28          1           0        3.411170   -0.415215    1.802406
     29          1           0        4.016287    1.780034    2.786652
     30          1           0        3.689653    3.862524    1.473360
     31          1           0        2.763438    3.748147   -0.826990
     32          1           0        2.165078    1.532212   -1.813352
 ---------------------------------------------------------------------

 SCF Done:  E(RHF) =  -1305.45638795     A.U. after   18 cycles
 E2 =    -0.3123026633D+01 EUMP2 =    -0.13085794145856D+04

 The electronic state is 1-A.
 Alpha  occ. eigenvalues --  -92.06020 -20.50678 -20.39743 -20.38913 -15.46357
 Alpha  occ. eigenvalues --  -15.39597 -11.20161 -11.18251 -11.17513 -11.17188
 Alpha  occ. eigenvalues --  -11.17030 -11.16955 -11.16765 -11.16442 -11.15868
 Alpha  occ. eigenvalues --  -11.15773 -11.15423 -11.15353 -11.15168 -11.15119
 Alpha  occ. eigenvalues --  -11.11197  -9.02729  -6.71291  -6.71201  -6.71166
 Alpha  occ. eigenvalues --   -1.34330  -1.28713  -1.16427  -1.08790  -1.07890
 Alpha  occ. eigenvalues --   -1.06416  -0.98832  -0.96463  -0.94319  -0.93099
 Alpha  occ. eigenvalues --   -0.92776  -0.90978  -0.77512  -0.76910  -0.75421
 Alpha  occ. eigenvalues --   -0.73860  -0.70247  -0.67808  -0.64516  -0.62911
 Alpha  occ. eigenvalues --   -0.60322  -0.58086  -0.55689  -0.54608  -0.54147
 Alpha  occ. eigenvalues --   -0.53257  -0.52254  -0.51623  -0.51422  -0.50688
 Alpha  occ. eigenvalues --   -0.49880  -0.49051  -0.47644  -0.43772  -0.43114
 Alpha  occ. eigenvalues --   -0.42948  -0.42723  -0.41454  -0.41154  -0.40547
 Alpha  occ. eigenvalues --   -0.36664  -0.34895  -0.33687  -0.32966  -0.31640
 Alpha  occ. eigenvalues --   -0.30253  -0.29593  -0.26402  -0.26226  -0.24670
 Alpha  occ. eigenvalues --   -0.24516  -0.20914  -0.18593
 Alpha virt. eigenvalues --    0.08806   0.09713   0.10029   0.10782   0.11337
 Alpha virt. eigenvalues --    0.12176   0.13471   0.13983   0.15017   0.15451
 Alpha virt. eigenvalues --    0.15849   0.17139   0.17688   0.18157   0.18298

 Mulliken charges:
               1
     1  O   -1.260321
     2  S    3.026258
     3  N   -1.270913
     4  C   -0.165602
     5  N   -0.424736
     6  O   -1.129410
     7  C    0.130311
     8  C    1.409306
     9  C    0.324391
    10  C    0.245190
    11  C    0.513924
    12  C    0.075619
    13  C    0.529921
    14  C    1.890023
    15  C    0.813298
    16  C   -0.132201
    17  C    0.492263
    18  C    0.563084
    19  C    0.462197
    20  C    0.277103
    21  O   -1.363240
    22  H   -0.671077
    23  H   -0.458443
    24  H   -0.457523
    25  H   -0.504124
    26  H   -0.554844
    27  H   -0.726952
    28  H   -0.610051
    29  H   -0.476085
    30  H   -0.462817
    31  H   -0.486949
    32  H   -0.597602
 Sum of Mulliken charges =  -1.00000

 Dipole moment (field-independent basis, Debye):
    X=             -6.9410    Y=             10.3517    Z=              0.9299  Tot=             12.4980
 Quadrupole moment (field-independent basis, Debye-Ang):
   XX=           -164.4147   YY=           -154.5981   ZZ=           -143.9596
   XY=             14.8851   XZ=             14.2350   YZ=             -2.8027

 Normal termination of Gaussian 16 at Thu Sep 24 07:24:32 2020.
