 Gaussian 16, Revision B.01,

 ----------------------------------------------------------------------
 #p b3lyp/6-31G(d) opt freq NoSymm scf=(MaxCycle=2000,NoVarAcc,NoIncFoc
 k) scrf=(iefpcm,read,solvent=water)
 ----------------------------------------------------------------------

 -------------------
 SM42_m0.n.9.pdb.xyz
 -------------------
 Symbolic Z-matrix:
 Charge =  0 Multiplicity = 1

 SCF Done:  E(RB3LYP) =  -1312.09134415     A.U. after   13 cycles
 SCF Done:  E(RB3LYP) =  -1312.09139010     A.U. after    9 cycles
 SCF Done:  E(RB3LYP) =  -1312.09140039     A.U. after    8 cycles
 SCF Done:  E(RB3LYP) =  -1312.09140469     A.U. after    8 cycles
 SCF Done:  E(RB3LYP) =  -1312.09140717     A.U. after    8 cycles
 SCF Done:  E(RB3LYP) =  -1312.09140882     A.U. after    8 cycles
 SCF Done:  E(RB3LYP) =  -1312.09140955     A.U. after    7 cycles
 SCF Done:  E(RB3LYP) =  -1312.09141036     A.U. after    7 cycles
 SCF Done:  E(RB3LYP) =  -1312.09141073     A.U. after    7 cycles
 SCF Done:  E(RB3LYP) =  -1312.09141078     A.U. after    7 cycles
 SCF Done:  E(RB3LYP) =  -1312.09141061     A.U. after    6 cycles
 Optimization completed.
    -- Stationary point found.
 Normal termination of Gaussian 16 at Tue Sep 22 20:15:47 2020.

 --------------------------------------------------------------------
 #P Geom=AllCheck Guess=TCheck SCRF=Check GenChk RB3LYP/6-31G(d) Freq
 --------------------------------------------------------------------

 Structure from the checkpoint file:  "SM42_m0.n.9.pdb.xyz.mst.n.w.chk"
 -------------------
 SM42_m0.n.9.pdb.xyz
 -------------------
 Charge =  0 Multiplicity = 1

 SCF Done:  E(RB3LYP) =  -1312.09141061     A.U. after    1 cycles

  Exact polarizability: 315.561 -28.807 221.897  12.048 -38.750 251.114
 Approx polarizability: 330.462 -36.929 258.335  17.013 -53.193 323.216

                      1                      2                      3
                      A                      A                      A
 Frequencies --     12.9807                25.2721                37.4313
 Red. masses --      6.4920                 4.1666                 4.0021
 Frc consts  --      0.0006                 0.0016                 0.0033
 IR Inten    --      1.8083                 1.4094                 0.5816

                      4                      5                      6
                      A                      A                      A
 Frequencies --     57.7714                72.2268                80.7140
 Red. masses --      6.6993                 6.8540                 4.9526
 Frc consts  --      0.0132                 0.0211                 0.0190
 IR Inten    --      2.1420                 3.8613                 6.0253

                      7                      8                      9
                      A                      A                      A
 Frequencies --    118.7137               137.0505               171.5135
 Red. masses --      5.9222                 7.4379                 6.3862
 Frc consts  --      0.0492                 0.0823                 0.1107
 IR Inten    --      2.7205                 0.9464                 2.5913

                     10                     11                     12
                      A                      A                      A
 Frequencies --    216.7010               242.1718               270.3123
 Red. masses --      5.1425                 8.0760                 6.2000
 Frc consts  --      0.1423                 0.2791                 0.2669
 IR Inten    --      0.1674                 1.8048                 4.3905

                     13                     14                     15
                      A                      A                      A
 Frequencies --    294.5579               305.9210               372.6312
 Red. masses --      8.4846                 8.5746                 8.0820
 Frc consts  --      0.4337                 0.4728                 0.6612
 IR Inten    --      1.9978                 5.9545                 3.0545

                     16                     17                     18
                      A                      A                      A
 Frequencies --    384.6098               411.7111               414.2490
 Red. masses --      7.5791                 2.9676                 3.0332
 Frc consts  --      0.6606                 0.2964                 0.3067
 IR Inten    --      1.5485                 0.0270                 0.1936

                     19                     20                     21
                      A                      A                      A
 Frequencies --    419.6256               443.9765               481.1882
 Red. masses --      7.8287                 5.8085                 4.0429
 Frc consts  --      0.8122                 0.6746                 0.5515
 IR Inten    --     10.3560                15.2875                29.3858

                     22                     23                     24
                      A                      A                      A
 Frequencies --    494.8947               504.6532               542.7941
 Red. masses --      2.4479                 1.6561                10.4952
 Frc consts  --      0.3532                 0.2485                 1.8218
 IR Inten    --     38.8715               132.9698               170.6370

                     25                     26                     27
                      A                      A                      A
 Frequencies --    576.8092               624.5588               630.7822
 Red. masses --      8.4461                 6.4359                 6.4473
 Frc consts  --      1.6557                 1.4791                 1.5114
 IR Inten    --    307.2269                 0.0843                 0.0631

                     28                     29                     30
                      A                      A                      A
 Frequencies --    660.8342               693.2136               695.7174
 Red. masses --      8.1689                 5.4562                 2.6488
 Frc consts  --      2.1018                 1.5448                 0.7554
 IR Inten    --      1.1881                 9.1893                62.8712

                     31                     32                     33
                      A                      A                      A
 Frequencies --    704.8597               708.0565               717.1427
 Red. masses --      1.7308                 3.7607                 6.4847
 Frc consts  --      0.5066                 1.1108                 1.9650
 IR Inten    --     41.1937                 8.3343                49.5876

                     34                     35                     36
                      A                      A                      A
 Frequencies --    764.2832               778.1548               785.3764
 Red. masses --      1.4877                 1.5256                 5.1293
 Frc consts  --      0.5120                 0.5443                 1.8641
 IR Inten    --     22.5153               113.4677                67.3675

                     37                     38                     39
                      A                      A                      A
 Frequencies --    806.6106               842.9143               856.9437
 Red. masses --      1.9166                 5.8213                 1.2494
 Frc consts  --      0.7347                 2.4369                 0.5406
 IR Inten    --     12.0092               217.8942                 0.4926

                     40                     41                     42
                      A                      A                      A
 Frequencies --    862.8553               945.1262               947.4626
 Red. masses --      1.2528                 1.3885                 1.3113
 Frc consts  --      0.5495                 0.7308                 0.6935
 IR Inten    --      0.0284                 2.7984                 0.2431

                     43                     44                     45
                      A                      A                      A
 Frequencies --    960.1900               967.2405               983.7731
 Red. masses --      9.1085                 9.8245                 1.3521
 Frc consts  --      4.9478                 5.4154                 0.7710
 IR Inten    --     17.3841                36.5869                 0.0303

                     46                     47                     48
                      A                      A                      A
 Frequencies --    987.1648              1013.0475              1013.4715
 Red. masses --      1.3566                 1.2688                 6.4632
 Frc consts  --      0.7789                 0.7672                 3.9113
 IR Inten    --      0.1388                 0.0640                 8.1821

                     49                     50                     51
                      A                      A                      A
 Frequencies --   1016.9889              1020.4185              1046.2740
 Red. masses --      6.0924                 1.2898                 3.0547
 Frc consts  --      3.7125                 0.7912                 1.9702
 IR Inten    --      1.1085                 0.0929                16.1121

                     52                     53                     54
                      A                      A                      A
 Frequencies --   1047.6956              1068.0143              1081.2081
 Red. masses --      2.4259                 3.0663                 3.0759
 Frc consts  --      1.5689                 2.0607                 2.1185
 IR Inten    --      5.6483                54.5847               119.4408

                     55                     56                     57
                      A                      A                      A
 Frequencies --   1092.1247              1108.2549              1109.5914
 Red. masses --      3.1252                 1.5358                 1.5623
 Frc consts  --      2.1962                 1.1114                 1.1333
 IR Inten    --      5.9534                10.9787                12.4123

                     58                     59                     60
                      A                      A                      A
 Frequencies --   1133.3126              1190.9113              1191.0300
 Red. masses --      6.5182                 1.1037                 1.0946
 Frc consts  --      4.9326                 0.9222                 0.9148
 IR Inten    --    382.3676                 0.8363                 0.3393

                     61                     62                     63
                      A                      A                      A
 Frequencies --   1201.1148              1202.9457              1221.2785
 Red. masses --      1.2063                 1.1651                 1.7438
 Frc consts  --      1.0253                 0.9933                 1.5324
 IR Inten    --     21.1108                 0.3755                31.7005

                     64                     65                     66
                      A                      A                      A
 Frequencies --   1292.0079              1302.6251              1341.3074
 Red. masses --      5.0022                 7.3928                 1.5428
 Frc consts  --      4.9197                 7.3909                 1.6354
 IR Inten    --     87.6459               178.3345                 0.5487

                     67                     68                     69
                      A                      A                      A
 Frequencies --   1345.3012              1362.9835              1367.7619
 Red. masses --      2.4004                 5.2594                 2.2849
 Frc consts  --      2.5596                 5.7566                 2.5185
 IR Inten    --     20.0861                 4.9140                 1.9389

                     70                     71                     72
                      A                      A                      A
 Frequencies --   1393.4117              1491.1586              1493.5291
 Red. masses --      1.9665                 2.2884                 2.2938
 Frc consts  --      2.2496                 2.9979                 3.0146
 IR Inten    --     44.2005                20.4010                57.3183

                     73                     74                     75
                      A                      A                      A
 Frequencies --   1515.2920              1520.3716              1520.9587
 Red. masses --      3.5720                 2.0822                 2.6409
 Frc consts  --      4.8323                 2.8357                 3.5994
 IR Inten    --    570.1425                24.0866               156.7015

                     76                     77                     78
                      A                      A                      A
 Frequencies --   1556.2166              1629.8889              1640.6422
 Red. masses --      3.6013                 5.4718                 5.5074
 Frc consts  --      5.1387                 8.5644                 8.7342
 IR Inten    --     26.5985               102.3024                 5.6546

                     79                     80                     81
                      A                      A                      A
 Frequencies --   1642.5004              1653.6045              1666.5407
 Red. masses --      5.8259                 6.4140                 6.1455
 Frc consts  --      9.2603                10.3334                10.0562
 IR Inten    --      0.6987               106.1607                78.5338

                     82                     83                     84
                      A                      A                      A
 Frequencies --   3208.4957              3215.3868              3216.5379
 Red. masses --      1.0858                 1.0884                 1.0870
 Frc consts  --      6.5860                 6.6301                 6.6258
 IR Inten    --      1.3574                 5.5109                 1.7604

                     85                     86                     87
                      A                      A                      A
 Frequencies --   3223.1361              3227.8971              3231.1114
 Red. masses --      1.0924                 1.0901                 1.0956
 Frc consts  --      6.6865                 6.6921                 6.7391
 IR Inten    --     38.2879                18.5540                38.8664

                     88                     89                     90
                      A                      A                      A
 Frequencies --   3235.2001              3238.3443              3247.8946
 Red. masses --      1.0946                 1.0954                 1.0942
 Frc consts  --      6.7501                 6.7683                 6.8004
 IR Inten    --     24.0793                13.3309                 7.9301

                     91                     92                     93
                      A                      A                      A
 Frequencies --   3261.1189              3319.4363              3533.5099
 Red. masses --      1.0928                 1.0991                 1.0777
 Frc consts  --      6.8472                 7.1351                 7.9282
 IR Inten    --      2.6562                 1.6719               217.1048

 - Thermochemistry -
 -------------------
 Temperature   298.150 Kelvin.  Pressure   1.00000 Atm.
 Atom     1 has atomic number  8 and mass  15.99491

 Molecular mass:   300.05686 amu.
 Principal axes and moments of inertia in atomic units:
                           1         2         3
     Eigenvalues --  3105.75686********************
           X            0.99999   0.00365  -0.00402
           Y           -0.00368   0.99995  -0.00916
           Z            0.00398   0.00917   0.99995
 This molecule is an asymmetric top.
 Rotational symmetry number  1.
 Warning -- assumption of classical behavior for rotation
           may cause significant error
 Rotational temperatures (Kelvin)      0.02789     0.00654     0.00600
 Rotational constants (GHZ):           0.58110     0.13636     0.12511
 Zero-point vibrational energy     649964.6 (Joules/Mol)
                                  155.34527 (Kcal/Mol)
 Warning -- explicit consideration of  25 degrees of freedom as
           vibrations may cause significant error
 Vibrational temperatures:     18.68    36.36    53.86    83.12   103.92
          (Kelvin)            116.13   170.80   197.19   246.77   311.78
                              348.43   388.92   423.80   440.15   536.13
                              553.37   592.36   596.01   603.75   638.78
                              692.32   712.04   726.08   780.96   829.90
                              898.60   907.55   950.79   997.38  1000.98
                             1014.14  1018.74  1031.81  1099.63  1119.59
                             1129.98  1160.53  1212.77  1232.95  1241.46
                             1359.83  1363.19  1381.50  1391.64  1415.43
                             1420.31  1457.55  1458.16  1463.22  1468.15
                             1505.35  1507.40  1536.63  1555.62  1571.32
                             1594.53  1596.45  1630.58  1713.46  1713.63
                             1728.14  1730.77  1757.15  1858.91  1874.19
                             1929.84  1935.59  1961.03  1967.90  2004.81
                             2145.44  2148.86  2180.17  2187.48  2188.32
                             2239.05  2345.05  2360.52  2363.19  2379.17
                             2397.78  4616.31  4626.22  4627.88  4637.37
                             4644.22  4648.85  4654.73  4659.26  4673.00
                             4692.02  4775.93  5083.93

 Zero-point correction=                           0.247558 (Hartree/Particle)
 Thermal correction to Energy=                    0.264905
 Thermal correction to Enthalpy=                  0.265849
 Thermal correction to Gibbs Free Energy=         0.199033
 Sum of electronic and zero-point Energies=          -1311.843852
 Sum of electronic and thermal Energies=             -1311.826506
 Sum of electronic and thermal Enthalpies=           -1311.825562
 Sum of electronic and thermal Free Energies=        -1311.892378

                     E (Thermal)             CV                S
                      KCal/Mol        Cal/Mol-Kelvin    Cal/Mol-Kelvin
 Total                  166.230             67.194            140.627
 Electronic               0.000              0.000              0.000
 Translational            0.889              2.981             42.993
 Rotational               0.889              2.981             34.738
 Vibrational            164.453             61.232             62.895
 Vibration     1          0.593              1.987              7.493
 Vibration     2          0.593              1.985              6.170
 Vibration     3          0.594              1.982              5.391
 Vibration     4          0.596              1.974              4.532
 Vibration     5          0.598              1.967              4.092
 Vibration     6          0.600              1.962              3.873
 Vibration     7          0.609              1.934              3.121
 Vibration     8          0.614              1.916              2.845
 Vibration     9          0.626              1.878              2.419
 Vibration    10          0.646              1.816              1.986
 Vibration    11          0.658              1.776              1.787
 Vibration    12          0.674              1.728              1.594
 Vibration    13          0.689              1.684              1.448
 Vibration    14          0.696              1.662              1.384
 Vibration    15          0.744              1.528              1.069
 Vibration    16          0.754              1.503              1.021
 Vibration    17          0.776              1.445              0.921
 Vibration    18          0.778              1.439              0.912
 Vibration    19          0.782              1.428              0.893
 Vibration    20          0.803              1.374              0.814
 Vibration    21          0.837              1.292              0.707
 Vibration    22          0.851              1.261              0.671
 Vibration    23          0.860              1.240              0.647
 Vibration    24          0.898              1.155              0.559
 Vibration    25          0.933              1.081              0.491

                           ! Non-Optimized Parameters !
 Normal termination of Gaussian 16 at Tue Sep 22 20:26:47 2020.

 ----------------------------------------------------------------------
 #p b3lyp/6-31G(d) scrf=(iefpcm,read,solvent=water) geom=allcheck guess
 =read
 ----------------------------------------------------------------------

 Structure from the checkpoint file:  "SM42_m0.n.9.pdb.xyz.mst.n.w.chk"
 -------------------
 SM42_m0.n.9.pdb.xyz
 -------------------
 Charge =  0 Multiplicity = 1

 SCF Done:  E(RB3LYP) =  -1312.09140916     A.U. after    6 cycles
 Normal termination of Gaussian 16 at Tue Sep 22 20:27:22 2020.

 -----------------------------
 #p B3LYP/6-31G* geom=allcheck
 -----------------------------

 Structure from the checkpoint file:  "SM42_m0.n.9.pdb.xyz.mst.n.w.chk"
 -------------------
 SM42_m0.n.9.pdb.xyz
 -------------------
 Charge =  0 Multiplicity = 1

 SCF Done:  E(RB3LYP) =  -1312.06571021     A.U. after   15 cycles
 Normal termination of Gaussian 16 at Tue Sep 22 20:28:11 2020.
 Gaussian 16:  ES64L-G16RevB.01 20-Dec-2017

 ----------------------------------------------------------------------
 #p mp2/aug-cc-pVDZ scf=(MaxCycle=2000,NoVarAcc,NoIncFock) maxdisk=120G
 B geom=allcheck
 ----------------------------------------------------------------------

 Structure from the checkpoint file:  "SM42_m0.n.9.pdb.xyz.mst.n.w.chk"
 -------------------
 SM42_m0.n.9.pdb.xyz
 -------------------
 Charge =  0 Multiplicity = 1

                         Standard orientation:
 ---------------------------------------------------------------------
 Center     Atomic      Atomic             Coordinates (Angstroms)
 Number     Number       Type             X           Y           Z
 ---------------------------------------------------------------------
      1          8           0        3.562084   -2.157417    0.702663
      2         16           0        2.677766   -1.382955   -0.174404
      3          7           0        1.137948   -1.691155    0.457174
      4          6           0       -0.037238   -1.089191    0.014222
      5          7           0       -0.146531   -0.524674   -1.174241
      6          8           0       -1.477852   -0.075787   -1.229181
      7          6           0       -2.115634   -0.394519   -0.077209
      8          6           0       -3.517310   -0.008343    0.046902
      9          6           0       -4.244406   -0.360418    1.196354
     10          6           0       -5.580760    0.009068    1.319154
     11          6           0       -6.207148    0.731063    0.299436
     12          6           0       -5.489205    1.082322   -0.845985
     13          6           0       -4.151764    0.716563   -0.974717
     14          6           0       -1.247334   -1.040804    0.756782
     15          6           0        3.018368    0.354299    0.054245
     16          6           0        3.501712    0.784683    1.292772
     17          6           0        3.764258    2.140421    1.474040
     18          6           0        3.544001    3.043193    0.429557
     19          6           0        3.063524    2.595631   -0.802899
     20          6           0        2.795497    1.241431   -1.000806
     21          8           0        2.627865   -1.661174   -1.611565
     22          1           0        1.168785   -1.903128    1.453866
     23          1           0       -3.763819   -0.923728    1.988658
     24          1           0       -6.134000   -0.267532    2.210150
     25          1           0       -7.248867    1.017343    0.397426
     26          1           0       -5.970765    1.642444   -1.640160
     27          1           0       -3.592291    0.989033   -1.861645
     28          1           0       -1.425339   -1.424095    1.747713
     29          1           0        3.678280    0.071100    2.088193
     30          1           0        4.144797    2.490108    2.427022
     31          1           0        3.751938    4.097478    0.576086
     32          1           0        2.900145    3.297447   -1.612805
     33          1           0        2.430815    0.874227   -1.950988
 ---------------------------------------------------------------------

 SCF Done:  E(RHF) =  -1305.99328388     A.U. after   18 cycles
 E2 =    -0.3108780229D+01 EUMP2 =    -0.13091020641120D+04

 The electronic state is 1-A.
 Alpha  occ. eigenvalues --  -92.23540 -20.65605 -20.56327 -20.55784 -15.63809
 Alpha  occ. eigenvalues --  -15.62344 -11.34672 -11.34502 -11.29039 -11.27770
 Alpha  occ. eigenvalues --  -11.27734 -11.27301 -11.27218 -11.27028 -11.26609
 Alpha  occ. eigenvalues --  -11.26549 -11.26514 -11.26292 -11.26267 -11.26091
 Alpha  occ. eigenvalues --  -11.25591  -9.20245  -6.88785  -6.88754  -6.88633
 Alpha  occ. eigenvalues --   -1.49612  -1.46324  -1.34143  -1.28264  -1.18611
 Alpha  occ. eigenvalues --   -1.18480  -1.14591  -1.10167  -1.06108  -1.04556
 Alpha  occ. eigenvalues --   -1.04029  -1.03289  -0.93137  -0.88640  -0.86373
 Alpha  occ. eigenvalues --   -0.85650  -0.84412  -0.81878  -0.79176  -0.75682
 Alpha  occ. eigenvalues --   -0.74681  -0.71623  -0.69955  -0.67999  -0.67307
 Alpha  occ. eigenvalues --   -0.66535  -0.65975  -0.65253  -0.64069  -0.63602
 Alpha  occ. eigenvalues --   -0.62176  -0.61568  -0.61351  -0.60568  -0.57037
 Alpha  occ. eigenvalues --   -0.56050  -0.54538  -0.53256  -0.52892  -0.52351
 Alpha  occ. eigenvalues --   -0.52247  -0.51464  -0.50878  -0.49722  -0.48410
 Alpha  occ. eigenvalues --   -0.46631  -0.46094  -0.41326  -0.39363  -0.36705
 Alpha  occ. eigenvalues --   -0.35976  -0.35787  -0.32618
 Alpha virt. eigenvalues --    0.02338   0.02913   0.03151   0.03990   0.04030
 Alpha virt. eigenvalues --    0.05039   0.05140   0.05326   0.06527   0.06711
 Alpha virt. eigenvalues --    0.07185   0.07616   0.07744   0.08738   0.09103

 Mulliken charges:
               1
     1  O   -1.124124
     2  S    3.057861
     3  N   -0.956540
     4  C   -0.144867
     5  N   -0.182686
     6  O   -1.083050
     7  C    0.157085
     8  C    1.389169
     9  C    0.633782
    10  C    0.026719
    11  C    0.556734
    12  C    0.184207
    13  C    0.442198
    14  C    1.638533
    15  C    0.768760
    16  C   -0.108113
    17  C    0.583993
    18  C    0.429092
    19  C    0.576090
    20  C    0.124730
    21  O   -1.182542
    22  H   -0.084661
    23  H   -0.591537
    24  H   -0.481041
    25  H   -0.432997
    26  H   -0.441435
    27  H   -0.652832
    28  H   -0.590217
    29  H   -0.589942
    30  H   -0.454349
    31  H   -0.437662
    32  H   -0.459685
    33  H   -0.570672
 Sum of Mulliken charges =  -0.00000

 Dipole moment (field-independent basis, Debye):
    X=             -4.6569    Y=              4.8415    Z=              4.9381  Tot=              8.3374
 Quadrupole moment (field-independent basis, Debye-Ang):
   XX=           -119.3589   YY=           -130.3690   ZZ=           -124.4727
   XY=             17.5883   XZ=              3.5726   YZ=            -10.2788

 Normal termination of Gaussian 16 at Tue Sep 22 21:17:18 2020.
