 Gaussian 16, Revision B.01,

 ----------------------------------------------------------------------
 #p b3lyp/6-31G(d) opt freq NoSymm scf=(MaxCycle=2000,NoVarAcc,NoIncFoc
 k) scrf=(iefpcm,read,solvent=water)
 ----------------------------------------------------------------------

 -------------------
 SM42_m0.n.5.pdb.xyz
 -------------------
 Symbolic Z-matrix:
 Charge =  0 Multiplicity = 1

 SCF Done:  E(RB3LYP) =  -1312.08994942     A.U. after   13 cycles
 SCF Done:  E(RB3LYP) =  -1312.08991949     A.U. after    9 cycles
 SCF Done:  E(RB3LYP) =  -1312.08992422     A.U. after    8 cycles
 SCF Done:  E(RB3LYP) =  -1312.08994788     A.U. after    9 cycles
 SCF Done:  E(RB3LYP) =  -1312.08994933     A.U. after    8 cycles
 SCF Done:  E(RB3LYP) =  -1312.08991903     A.U. after   10 cycles
 SCF Done:  E(RB3LYP) =  -1312.08992000     A.U. after    8 cycles
 SCF Done:  E(RB3LYP) =  -1312.08994748     A.U. after    9 cycles
 SCF Done:  E(RB3LYP) =  -1312.08994942     A.U. after    8 cycles
 SCF Done:  E(RB3LYP) =  -1312.08991160     A.U. after   10 cycles
 SCF Done:  E(RB3LYP) =  -1312.08994726     A.U. after   10 cycles
 SCF Done:  E(RB3LYP) =  -1312.08991824     A.U. after   10 cycles
 SCF Done:  E(RB3LYP) =  -1312.08994726     A.U. after   10 cycles
 SCF Done:  E(RB3LYP) =  -1312.08991787     A.U. after   10 cycles
 SCF Done:  E(RB3LYP) =  -1312.08994723     A.U. after   10 cycles
 SCF Done:  E(RB3LYP) =  -1312.08991790     A.U. after   10 cycles
 Optimization completed on the basis of negligible forces.
    -- Stationary point found.
 Normal termination of Gaussian 16 at Tue Sep 22 20:26:54 2020.

 --------------------------------------------------------------------
 #P Geom=AllCheck Guess=TCheck SCRF=Check GenChk RB3LYP/6-31G(d) Freq
 --------------------------------------------------------------------

 Structure from the checkpoint file:  "SM42_m0.n.5.pdb.xyz.mst.n.w.chk"
 -------------------
 SM42_m0.n.5.pdb.xyz
 -------------------
 Charge =  0 Multiplicity = 1

 SCF Done:  E(RB3LYP) =  -1312.08991790     A.U. after    1 cycles

  Exact polarizability: 404.317 -25.566 230.137  -8.588 -11.988 158.121
 Approx polarizability: 422.394 -28.153 292.412  -6.779 -16.210 196.673

                      1                      2                      3
                      A                      A                      A
 Frequencies --     14.4241                26.9509                30.4838
 Red. masses --      7.0409                 3.8440                 4.5132
 Frc consts  --      0.0009                 0.0016                 0.0025
 IR Inten    --      3.6997                 0.2270                 0.5609

                      4                      5                      6
                      A                      A                      A
 Frequencies --     50.1488                55.6666                85.6270
 Red. masses --      6.5122                 7.3395                 5.3856
 Frc consts  --      0.0096                 0.0134                 0.0233
 IR Inten    --      1.0960                 6.4038                 1.6228

                      7                      8                      9
                      A                      A                      A
 Frequencies --     99.6793               145.9898               178.4985
 Red. masses --      6.3201                 6.1751                 6.7944
 Frc consts  --      0.0370                 0.0775                 0.1275
 IR Inten    --      1.8774                 6.0370                 2.6812

                     10                     11                     12
                      A                      A                      A
 Frequencies --    217.5461               226.1537               287.4425
 Red. masses --      5.2582                 5.5755                 8.7289
 Frc consts  --      0.1466                 0.1680                 0.4249
 IR Inten    --      0.7134                 7.3221                 3.2066

                     13                     14                     15
                      A                      A                      A
 Frequencies --    309.8580               321.3025               353.9577
 Red. masses --      8.3676                 6.5049                 7.6695
 Frc consts  --      0.4733                 0.3957                 0.5661
 IR Inten    --     12.6760                 2.2292                 4.0221

                     16                     17                     18
                      A                      A                      A
 Frequencies --    377.8956               411.9795               413.5003
 Red. masses --      6.0135                 2.9621                 2.9703
 Frc consts  --      0.5060                 0.2962                 0.2992
 IR Inten    --     10.9886                 0.0155                 0.9643

                     19                     20                     21
                      A                      A                      A
 Frequencies --    419.3325               460.8642               483.5506
 Red. masses --      4.8990                 6.1899                 4.9377
 Frc consts  --      0.5075                 0.7746                 0.6802
 IR Inten    --     37.8179                15.2949                 8.1477

                     22                     23                     24
                      A                      A                      A
 Frequencies --    499.6740               529.4918               576.1911
 Red. masses --      4.1132                 6.3693                 8.4546
 Frc consts  --      0.6051                 1.0521                 1.6538
 IR Inten    --      9.9057                28.7447               356.1518

                     25                     26                     27
                      A                      A                      A
 Frequencies --    604.6983               625.3391               631.1742
 Red. masses --      2.9946                 6.4610                 6.4224
 Frc consts  --      0.6452                 1.4886                 1.5075
 IR Inten    --    170.7828                 0.2289                 0.7753

                     28                     29                     30
                      A                      A                      A
 Frequencies --    672.1524               687.3403               696.2331
 Red. masses --      6.5395                 5.7887                 2.4367
 Frc consts  --      1.7407                 1.6113                 0.6959
 IR Inten    --     10.0885                35.9870                41.8676

                     31                     32                     33
                      A                      A                      A
 Frequencies --    705.2923               715.2016               726.7706
 Red. masses --      1.7864                 3.7681                 6.4448
 Frc consts  --      0.5236                 1.1356                 2.0056
 IR Inten    --     42.2480                32.4035               103.8487

                     34                     35                     36
                      A                      A                      A
 Frequencies --    765.1251               784.7207               796.5533
 Red. masses --      1.4851                 1.6348                 2.9585
 Frc consts  --      0.5122                 0.5931                 1.1060
 IR Inten    --     27.2450                74.3966                46.9575

                     37                     38                     39
                      A                      A                      A
 Frequencies --    819.5839               858.3030               859.1165
 Red. masses --      1.6675                 1.2632                 3.5246
 Frc consts  --      0.6599                 0.5483                 1.5327
 IR Inten    --     29.9146                 4.1936               244.0615

                     40                     41                     42
                      A                      A                      A
 Frequencies --    864.2504               945.5909               949.5231
 Red. masses --      1.2545                 1.3896                 1.3122
 Frc consts  --      0.5521                 0.7321                 0.6971
 IR Inten    --      0.6611                 2.9823                 2.0486

                     43                     44                     45
                      A                      A                      A
 Frequencies --    959.1169               966.5409               984.3603
 Red. masses --      9.7664                10.6262                 1.3531
 Frc consts  --      5.2933                 5.8488                 0.7725
 IR Inten    --      9.5958                47.6874                 0.0174

                     46                     47                     48
                      A                      A                      A
 Frequencies --    990.8529              1013.6755              1013.7994
 Red. masses --      1.3571                 4.2240                 1.4149
 Frc consts  --      0.7850                 2.5572                 0.8568
 IR Inten    --      0.2325                 5.9477                 1.3005

                     49                     50                     51
                      A                      A                      A
 Frequencies --   1017.0757              1023.2872              1042.1346
 Red. masses --      6.1423                 1.2917                 2.7253
 Frc consts  --      3.7436                 0.7969                 1.7439
 IR Inten    --      0.6065                 0.1116                22.1897

                     52                     53                     54
                      A                      A                      A
 Frequencies --   1047.6751              1054.1516              1077.2543
 Red. masses --      3.1363                 3.0651                 2.5623
 Frc consts  --      2.0283                 2.0068                 1.7519
 IR Inten    --     13.4213                42.5903                47.1841

                     55                     56                     57
                      A                      A                      A
 Frequencies --   1087.2187              1110.7230              1111.9285
 Red. masses --      3.0870                 1.5802                 1.5588
 Frc consts  --      2.1499                 1.1486                 1.1355
 IR Inten    --     64.3110                11.3673                12.5060

                     58                     59                     60
                      A                      A                      A
 Frequencies --   1135.9801              1189.6428              1194.1558
 Red. masses --      5.3560                 1.0991                 1.0948
 Frc consts  --      4.0722                 0.9165                 0.9199
 IR Inten    --    243.3592                 0.4589                 0.3827

                     61                     62                     63
                      A                      A                      A
 Frequencies --   1203.8514              1207.4323              1218.8100
 Red. masses --      1.2457                 1.1656                 1.9116
 Frc consts  --      1.0637                 1.0012                 1.6731
 IR Inten    --     19.7386                 1.3981                25.0634

                     64                     65                     66
                      A                      A                      A
 Frequencies --   1275.9995              1295.3063              1346.4042
 Red. masses --     11.6610                 4.5656                 1.4543
 Frc consts  --     11.1863                 4.5133                 1.5533
 IR Inten    --    316.4390                13.5381                 2.2829

                     67                     68                     69
                      A                      A                      A
 Frequencies --   1354.5485              1365.2305              1370.2846
 Red. masses --      3.5870                 5.1839                 1.8629
 Frc consts  --      3.8777                 5.6927                 2.0610
 IR Inten    --     34.3328                 6.1720                 5.3119

                     70                     71                     72
                      A                      A                      A
 Frequencies --   1397.1987              1481.2695              1493.2926
 Red. masses --      1.6918                 3.6930                 2.1866
 Frc consts  --      1.9459                 4.7741                 2.8728
 IR Inten    --    221.7579               292.7695                31.1983

                     73                     74                     75
                      A                      A                      A
 Frequencies --   1502.9437              1521.9203              1524.2430
 Red. masses --      3.0441                 2.5597                 2.0472
 Frc consts  --      4.0513                 3.4931                 2.8024
 IR Inten    --    257.7039                67.3121                 4.8054

                     76                     77                     78
                      A                      A                      A
 Frequencies --   1556.3373              1627.6590              1641.7330
 Red. masses --      3.1165                 5.4926                 5.4287
 Frc consts  --      4.4476                 8.5734                 8.6209
 IR Inten    --     60.6656               151.6429                 8.0007

                     79                     80                     81
                      A                      A                      A
 Frequencies --   1644.7728              1651.1246              1665.9867
 Red. masses --      5.8786                 6.4130                 5.9170
 Frc consts  --      9.3699                10.3009                 9.6759
 IR Inten    --      0.3326               115.7343                53.4315

                     82                     83                     84
                      A                      A                      A
 Frequencies --   3207.8784              3214.8493              3216.9143
 Red. masses --      1.0858                 1.0885                 1.0871
 Frc consts  --      6.5834                 6.6283                 6.6283
 IR Inten    --      1.0125                 5.9681                 2.1417

                     85                     86                     87
                      A                      A                      A
 Frequencies --   3222.4991              3228.5048              3230.9092
 Red. masses --      1.0926                 1.0899                 1.0961
 Frc consts  --      6.6850                 6.6931                 6.7411
 IR Inten    --     41.0306                15.1639                38.8859

                     88                     89                     90
                      A                      A                      A
 Frequencies --   3235.5768              3239.3675              3244.8528
 Red. masses --      1.0936                 1.0946                 1.0950
 Frc consts  --      6.7454                 6.7675                 6.7927
 IR Inten    --     21.3342                11.8951                 7.7865

                     91                     92                     93
                      A                      A                      A
 Frequencies --   3253.4471              3339.8998              3489.2533
 Red. masses --      1.0937                 1.0987                 1.0758
 Frc consts  --      6.8207                 7.2209                 7.7166
 IR Inten    --      6.0359                 8.7584               147.2456

 - Thermochemistry -
 -------------------
 Temperature   298.150 Kelvin.  Pressure   1.00000 Atm.
 Atom     1 has atomic number  8 and mass  15.99491

 Molecular mass:   300.05686 amu.
 Principal axes and moments of inertia in atomic units:
                           1         2         3
     Eigenvalues --  1831.83130********************
           X            0.99998  -0.00203  -0.00560
           Y            0.00210   0.99991   0.01350
           Z            0.00557  -0.01351   0.99989
 This molecule is an asymmetric top.
 Rotational symmetry number  1.
 Warning -- assumption of classical behavior for rotation
           may cause significant error
 Rotational temperatures (Kelvin)      0.04728     0.00523     0.00510
 Rotational constants (GHZ):           0.98521     0.10892     0.10627
 Zero-point vibrational energy     650607.3 (Joules/Mol)
                                  155.49889 (Kcal/Mol)
 Warning -- explicit consideration of  25 degrees of freedom as
           vibrations may cause significant error
 Vibrational temperatures:     20.75    38.78    43.86    72.15    80.09
          (Kelvin)            123.20   143.42   210.05   256.82   313.00
                              325.38   413.57   445.82   462.28   509.27
                              543.71   592.75   594.93   603.33   663.08
                              695.72   718.92   761.82   829.01   870.03
                              899.72   908.12   967.08   988.93  1001.72
                             1014.76  1029.02  1045.66  1100.84  1129.04
                             1146.06  1179.20  1234.91  1236.08  1243.46
                             1360.49  1366.15  1379.96  1390.64  1416.27
                             1425.62  1458.45  1458.63  1463.35  1472.28
                             1499.40  1507.37  1516.69  1549.93  1564.27
                             1598.08  1599.82  1634.42  1711.63  1718.12
                             1732.07  1737.23  1753.60  1835.88  1863.66
                             1937.18  1948.89  1964.26  1971.53  2010.26
                             2131.22  2148.51  2162.40  2189.70  2193.05
                             2239.22  2341.84  2362.09  2366.46  2375.60
                             2396.98  4615.42  4625.45  4628.42  4636.46
                             4645.10  4648.56  4655.27  4660.73  4668.62
                             4680.98  4805.37  5020.26

 Zero-point correction=                           0.247803 (Hartree/Particle)
 Thermal correction to Energy=                    0.265099
 Thermal correction to Enthalpy=                  0.266044
 Thermal correction to Gibbs Free Energy=         0.199039
 Sum of electronic and zero-point Energies=          -1311.842115
 Sum of electronic and thermal Energies=             -1311.824818
 Sum of electronic and thermal Enthalpies=           -1311.823874
 Sum of electronic and thermal Free Energies=        -1311.890879

                     E (Thermal)             CV                S
                      KCal/Mol        Cal/Mol-Kelvin    Cal/Mol-Kelvin
 Total                  166.352             66.835            141.023
 Electronic               0.000              0.000              0.000
 Translational            0.889              2.981             42.993
 Rotational               0.889              2.981             34.599
 Vibrational            164.575             60.873             63.431
 Vibration     1          0.593              1.986              7.283
 Vibration     2          0.593              1.984              6.042
 Vibration     3          0.594              1.984              5.798
 Vibration     4          0.595              1.978              4.812
 Vibration     5          0.596              1.975              4.605
 Vibration     6          0.601              1.959              3.758
 Vibration     7          0.604              1.949              3.461
 Vibration     8          0.617              1.907              2.724
 Vibration     9          0.629              1.869              2.344
 Vibration    10          0.646              1.814              1.979
 Vibration    11          0.650              1.801              1.909
 Vibration    12          0.685              1.697              1.489
 Vibration    13          0.699              1.655              1.363
 Vibration    14          0.707              1.633              1.303
 Vibration    15          0.730              1.567              1.149
 Vibration    16          0.748              1.517              1.048
 Vibration    17          0.776              1.444              0.920
 Vibration    18          0.777              1.441              0.914
 Vibration    19          0.782              1.428              0.894
 Vibration    20          0.819              1.337              0.764
 Vibration    21          0.840              1.287              0.701
 Vibration    22          0.855              1.251              0.659
 Vibration    23          0.884              1.185              0.588
 Vibration    24          0.933              1.083              0.492
 Vibration    25          0.963              1.022              0.442

 Optimization completed.
    -- Stationary point found.
 Normal termination of Gaussian 16 at Tue Sep 22 20:36:48 2020.

 ----------------------------------------------------------------------
 #p b3lyp/6-31G(d) scrf=(iefpcm,read,solvent=water) geom=allcheck guess
 =read
 ----------------------------------------------------------------------

 Structure from the checkpoint file:  "SM42_m0.n.5.pdb.xyz.mst.n.w.chk"
 -------------------
 SM42_m0.n.5.pdb.xyz
 -------------------
 Charge =  0 Multiplicity = 1

 SCF Done:  E(RB3LYP) =  -1312.08990781     A.U. after    6 cycles
 Normal termination of Gaussian 16 at Tue Sep 22 20:37:20 2020.

 -----------------------------
 #p B3LYP/6-31G* geom=allcheck
 -----------------------------

 Structure from the checkpoint file:  "SM42_m0.n.5.pdb.xyz.mst.n.w.chk"
 -------------------
 SM42_m0.n.5.pdb.xyz
 -------------------
 Charge =  0 Multiplicity = 1

 SCF Done:  E(RB3LYP) =  -1312.06935217     A.U. after   15 cycles
 Normal termination of Gaussian 16 at Tue Sep 22 20:38:03 2020.
 Gaussian 16:  ES64L-G16RevB.01 20-Dec-2017

 ----------------------------------------------------------------------
 #p mp2/aug-cc-pVDZ scf=(MaxCycle=2000,NoVarAcc,NoIncFock) maxdisk=120G
 B geom=allcheck
 ----------------------------------------------------------------------

 Structure from the checkpoint file:  "SM42_m0.n.5.pdb.xyz.mst.n.w.chk"
 -------------------
 SM42_m0.n.5.pdb.xyz
 -------------------
 Charge =  0 Multiplicity = 1

                         Standard orientation:
 ---------------------------------------------------------------------
 Center     Atomic      Atomic             Coordinates (Angstroms)
 Number     Number       Type             X           Y           Z
 ---------------------------------------------------------------------
      1          8           0        1.272686    1.423093    0.884404
      2         16           0        1.913725    0.101861    0.843389
      3          7           0        1.080389   -0.783636   -0.350545
      4          6           0       -0.317448   -0.869696   -0.297980
      5          7           0       -0.893649   -2.029444   -0.554885
      6          8           0       -2.268860   -1.756138   -0.527350
      7          6           0       -2.467225   -0.448069   -0.233511
      8          6           0       -3.846597    0.018588   -0.151880
      9          6           0       -4.118414    1.362568    0.153371
     10          6           0       -5.434774    1.809287    0.230062
     11          6           0       -6.492353    0.923673    0.004342
     12          6           0       -6.226900   -0.413777   -0.298999
     13          6           0       -4.912478   -0.866856   -0.377403
     14          6           0       -1.257805    0.172376   -0.079893
     15          6           0        3.522570    0.209124    0.094280
     16          6           0        3.691185    1.002224   -1.043667
     17          6           0        4.962891    1.101763   -1.602575
     18          6           0        6.038651    0.421460   -1.022471
     19          6           0        5.851746   -0.361159    0.118252
     20          6           0        4.583846   -0.472765    0.688985
     21          8           0        2.025721   -0.659159    2.097001
     22          1           0        1.528689   -1.689933   -0.510190
     23          1           0       -3.300683    2.052769    0.329548
     24          1           0       -5.635737    2.848696    0.466189
     25          1           0       -7.517052    1.274503    0.064804
     26          1           0       -7.044131   -1.104992   -0.474796
     27          1           0       -4.702590   -1.903382   -0.612925
     28          1           0       -1.044308    1.201162    0.149801
     29          1           0        2.849519    1.527321   -1.478942
     30          1           0        5.114689    1.710619   -2.486593
     31          1           0        7.026588    0.504491   -1.461964
     32          1           0        6.689344   -0.883843    0.565824
     33          1           0        4.411153   -1.070447    1.575113
 ---------------------------------------------------------------------

 SCF Done:  E(RHF) =  -1305.99660438     A.U. after   18 cycles
 E2 =    -0.3108217040D+01 EUMP2 =    -0.13091048214205D+04

 The electronic state is 1-A.
 Alpha  occ. eigenvalues --  -92.24167 -20.65048 -20.56982 -20.56970 -15.63865
 Alpha  occ. eigenvalues --  -15.62303 -11.33960 -11.33331 -11.30049 -11.28690
 Alpha  occ. eigenvalues --  -11.28563 -11.28191 -11.27458 -11.27366 -11.26867
 Alpha  occ. eigenvalues --  -11.26050 -11.25772 -11.25692 -11.25403 -11.25293
 Alpha  occ. eigenvalues --  -11.24199  -9.20954  -6.89470  -6.89441  -6.89351
 Alpha  occ. eigenvalues --   -1.49167  -1.46928  -1.34704  -1.28199  -1.19670
 Alpha  occ. eigenvalues --   -1.17731  -1.14252  -1.09264  -1.07042  -1.05631
 Alpha  occ. eigenvalues --   -1.03161  -1.02377  -0.93769  -0.87937  -0.86779
 Alpha  occ. eigenvalues --   -0.85313  -0.83738  -0.80964  -0.79957  -0.75637
 Alpha  occ. eigenvalues --   -0.74425  -0.71770  -0.69322  -0.68445  -0.67519
 Alpha  occ. eigenvalues --   -0.66404  -0.65801  -0.64945  -0.64328  -0.63716
 Alpha  occ. eigenvalues --   -0.62647  -0.62215  -0.60422  -0.59371  -0.57326
 Alpha  occ. eigenvalues --   -0.55804  -0.55141  -0.53558  -0.53303  -0.52254
 Alpha  occ. eigenvalues --   -0.51934  -0.51574  -0.50614  -0.49847  -0.48172
 Alpha  occ. eigenvalues --   -0.47812  -0.47220  -0.40358  -0.39029  -0.37956
 Alpha  occ. eigenvalues --   -0.37011  -0.34939  -0.31652
 Alpha virt. eigenvalues --    0.02546   0.03274   0.03592   0.04177   0.04376
 Alpha virt. eigenvalues --    0.05124   0.05409   0.06057   0.06153   0.06468
 Alpha virt. eigenvalues --    0.06656   0.07059   0.07947   0.08390   0.09819

 Mulliken charges:
               1
     1  O   -1.274167
     2  S    3.160937
     3  N   -0.930147
     4  C   -0.237488
     5  N   -0.296645
     6  O   -1.078772
     7  C    0.066481
     8  C    1.398771
     9  C    0.648112
    10  C    0.016164
    11  C    0.562138
    12  C    0.218834
    13  C    0.352229
    14  C    1.827314
    15  C    0.759754
    16  C    0.083655
    17  C    0.555169
    18  C    0.469579
    19  C    0.691304
    20  C   -0.093152
    21  O   -1.219373
    22  H   -0.064211
    23  H   -0.566926
    24  H   -0.486776
    25  H   -0.438177
    26  H   -0.441858
    27  H   -0.665386
    28  H   -0.624610
    29  H   -0.552790
    30  H   -0.450554
    31  H   -0.432268
    32  H   -0.438859
    33  H   -0.518280
 Sum of Mulliken charges =  -0.00000

 Dipole moment (field-independent basis, Debye):
    X=              2.5131    Y=              1.6930    Z=             -3.1556  Tot=              4.3749
 Quadrupole moment (field-independent basis, Debye-Ang):
   XX=            -77.9301   YY=           -132.3595   ZZ=           -138.5669
   XY=             -7.5548   XZ=             -9.9160   YZ=             -3.5367

 Normal termination of Gaussian 16 at Tue Sep 22 21:15:43 2020.
