 Gaussian 16, Revision B.01,

 ----------------------------------------------------------------------
 #p b3lyp/6-31G(d) opt freq NoSymm scf=(MaxCycle=2000,NoVarAcc,NoIncFoc
 k) scrf=(iefpcm,read,solvent=water)
 ----------------------------------------------------------------------

 -------------------
 SM42_m0.n.7.pdb.xyz
 -------------------
 Symbolic Z-matrix:
 Charge =  0 Multiplicity = 1

 SCF Done:  E(RB3LYP) =  -1312.09238946     A.U. after   13 cycles
 SCF Done:  E(RB3LYP) =  -1312.09244090     A.U. after    9 cycles
 SCF Done:  E(RB3LYP) =  -1312.09244680     A.U. after    8 cycles
 SCF Done:  E(RB3LYP) =  -1312.09245407     A.U. after    8 cycles
 SCF Done:  E(RB3LYP) =  -1312.09245986     A.U. after    8 cycles
 SCF Done:  E(RB3LYP) =  -1312.09246227     A.U. after    8 cycles
 SCF Done:  E(RB3LYP) =  -1312.09246250     A.U. after    7 cycles
 SCF Done:  E(RB3LYP) =  -1312.09246279     A.U. after    7 cycles
 SCF Done:  E(RB3LYP) =  -1312.09246294     A.U. after    6 cycles
 Optimization completed.
    -- Stationary point found.
 Normal termination of Gaussian 16 at Tue Sep 22 20:13:56 2020.

 --------------------------------------------------------------------
 #P Geom=AllCheck Guess=TCheck SCRF=Check GenChk RB3LYP/6-31G(d) Freq
 --------------------------------------------------------------------

 Structure from the checkpoint file:  "SM42_m0.n.7.pdb.xyz.mst.n.w.chk"
 -------------------
 SM42_m0.n.7.pdb.xyz
 -------------------
 Charge =  0 Multiplicity = 1

 SCF Done:  E(RB3LYP) =  -1312.09246294     A.U. after    1 cycles

  Exact polarizability: 337.991 -49.575 213.773  42.314  -2.714 237.845
 Approx polarizability: 367.395 -64.141 247.824  50.323  -2.588 302.147

                      1                      2                      3
                      A                      A                      A
 Frequencies --     13.1363                24.6611                28.1737
 Red. masses --      5.7558                 4.1089                 4.0917
 Frc consts  --      0.0006                 0.0015                 0.0019
 IR Inten    --      1.3389                 1.4553                 0.4683

                      4                      5                      6
                      A                      A                      A
 Frequencies --     46.2416                64.8051                88.8804
 Red. masses --      7.0035                 7.6449                 5.1759
 Frc consts  --      0.0088                 0.0189                 0.0241
 IR Inten    --      3.5436                 3.0664                 2.7986

                      7                      8                      9
                      A                      A                      A
 Frequencies --    122.8857               141.1149               168.5725
 Red. masses --      5.5328                 6.4128                 6.1892
 Frc consts  --      0.0492                 0.0752                 0.1036
 IR Inten    --      4.9862                10.1154                 2.3230

                     10                     11                     12
                      A                      A                      A
 Frequencies --    218.1933               254.6208               279.5770
 Red. masses --      5.0690                 8.9585                 6.4362
 Frc consts  --      0.1422                 0.3422                 0.2964
 IR Inten    --      0.7425                 0.6892                 3.6376

                     13                     14                     15
                      A                      A                      A
 Frequencies --    302.2877               306.2511               363.7715
 Red. masses --      7.4987                 7.3068                 8.6187
 Frc consts  --      0.4037                 0.4038                 0.6720
 IR Inten    --      7.2585                 3.6261                 0.6793

                     16                     17                     18
                      A                      A                      A
 Frequencies --    384.4923               411.6450               411.9464
 Red. masses --      5.4469                 4.1124                 3.1624
 Frc consts  --      0.4744                 0.4106                 0.3162
 IR Inten    --      8.6441                 4.1944                 1.1266

                     19                     20                     21
                      A                      A                      A
 Frequencies --    413.3532               455.3233               477.1320
 Red. masses --      4.2015                 5.1614                 4.7015
 Frc consts  --      0.4230                 0.6305                 0.6306
 IR Inten    --      5.5187                 2.7010                10.6127

                     22                     23                     24
                      A                      A                      A
 Frequencies --    499.5079               536.6369               551.0365
 Red. masses --      4.0513                 8.7394                 2.4180
 Frc consts  --      0.5956                 1.4828                 0.4326
 IR Inten    --      9.8261               131.5324                64.5942

                     25                     26                     27
                      A                      A                      A
 Frequencies --    594.2079               624.6625               630.9104
 Red. masses --      4.5272                 6.4456                 6.4375
 Frc consts  --      0.9418                 1.4819                 1.5097
 IR Inten    --    476.9427                 0.1022                 0.4937

                     28                     29                     30
                      A                      A                      A
 Frequencies --    667.2000               686.8931               695.4899
 Red. masses --      7.0395                 6.1376                 2.5381
 Frc consts  --      1.8463                 1.7062                 0.7233
 IR Inten    --      7.5394                25.6339                39.0931

                     31                     32                     33
                      A                      A                      A
 Frequencies --    705.1256               712.3782               723.6768
 Red. masses --      1.7840                 3.9505                 6.3918
 Frc consts  --      0.5226                 1.1812                 1.9723
 IR Inten    --     39.2125                34.7419               110.6297

                     34                     35                     36
                      A                      A                      A
 Frequencies --    764.6910               785.0301               785.8833
 Red. masses --      1.4589                 2.8666                 1.9150
 Frc consts  --      0.5026                 1.0408                 0.6968
 IR Inten    --     29.0261                14.3339                59.4868

                     37                     38                     39
                      A                      A                      A
 Frequencies --    825.8206               858.8549               863.2841
 Red. masses --      1.5502                 1.2669                 1.3436
 Frc consts  --      0.6229                 0.5506                 0.5900
 IR Inten    --     30.1582                 5.4448                11.5784

                     40                     41                     42
                      A                      A                      A
 Frequencies --    864.0533               945.7255               948.9272
 Red. masses --      3.2812                 1.3901                 1.3151
 Frc consts  --      1.4433                 0.7325                 0.6977
 IR Inten    --    121.9645                 3.1648                 0.1854

                     43                     44                     45
                      A                      A                      A
 Frequencies --    959.4009               966.0935               983.6716
 Red. masses --      9.6393                10.5700                 1.3529
 Frc consts  --      5.2275                 5.8125                 0.7713
 IR Inten    --     10.1368                56.7126                 0.0054

                     46                     47                     48
                      A                      A                      A
 Frequencies --    987.6638              1012.6937              1013.3401
 Red. masses --      1.3575                 1.2695                 6.4097
 Frc consts  --      0.7802                 0.7671                 3.8779
 IR Inten    --      0.0675                 0.1453                 6.8083

                     49                     50                     51
                      A                      A                      A
 Frequencies --   1016.8224              1021.2243              1038.7329
 Red. masses --      6.1140                 1.2920                 2.5005
 Frc consts  --      3.7245                 0.7939                 1.5896
 IR Inten    --      0.7261                 0.2935                12.4633

                     52                     53                     54
                      A                      A                      A
 Frequencies --   1046.9623              1054.1546              1076.5463
 Red. masses --      2.9947                 2.9172                 2.6047
 Frc consts  --      1.9340                 1.9099                 1.7786
 IR Inten    --     13.3646                38.4637                37.6327

                     55                     56                     57
                      A                      A                      A
 Frequencies --   1084.7219              1108.8080              1109.7024
 Red. masses --      3.1346                 1.5263                 1.5680
 Frc consts  --      2.1730                 1.1056                 1.1377
 IR Inten    --     61.4003                11.5611                13.1562

                     58                     59                     60
                      A                      A                      A
 Frequencies --   1133.3807              1189.8700              1193.8397
 Red. masses --      6.4849                 1.1104                 1.0966
 Frc consts  --      4.9080                 0.9263                 0.9209
 IR Inten    --    361.0010                 0.5976                 0.2501

                     61                     62                     63
                      A                      A                      A
 Frequencies --   1200.5955              1203.6304              1217.1806
 Red. masses --      1.2677                 1.1660                 1.8646
 Frc consts  --      1.0766                 0.9953                 1.6276
 IR Inten    --      9.8827                 1.3279                 8.6009

                     64                     65                     66
                      A                      A                      A
 Frequencies --   1292.3642              1302.6525              1341.4463
 Red. masses --      4.8049                 8.2319                 1.4529
 Frc consts  --      4.7283                 8.2302                 1.5404
 IR Inten    --     44.1159               217.3476                 0.8102

                     67                     68                     69
                      A                      A                      A
 Frequencies --   1354.0025              1364.5674              1369.1403
 Red. masses --      3.3132                 5.3213                 1.9663
 Frc consts  --      3.5788                 5.8379                 2.1717
 IR Inten    --     31.2193                10.2622                 3.7960

                     70                     71                     72
                      A                      A                      A
 Frequencies --   1395.9381              1483.0284              1493.3716
 Red. masses --      1.7710                 3.5078                 2.1851
 Frc consts  --      2.0333                 4.5455                 2.8711
 IR Inten    --    220.7450               192.3862                32.9158

                     73                     74                     75
                      A                      A                      A
 Frequencies --   1503.8650              1520.2034              1521.1279
 Red. masses --      3.2765                 2.6400                 2.0799
 Frc consts  --      4.3659                 3.5946                 2.8354
 IR Inten    --    263.6215                60.6821                 4.8743

                     76                     77                     78
                      A                      A                      A
 Frequencies --   1554.3762              1626.7782              1641.1810
 Red. masses --      3.1566                 5.5471                 5.4904
 Frc consts  --      4.4935                 8.6491                 8.7130
 IR Inten    --     56.7962               146.4121                 5.1237

                     79                     80                     81
                      A                      A                      A
 Frequencies --   1644.8928              1650.8625              1665.2589
 Red. masses --      5.8476                 6.5127                 5.9262
 Frc consts  --      9.3218                10.4576                 9.6825
 IR Inten    --      0.3987               111.0272                46.1069

                     82                     83                     84
                      A                      A                      A
 Frequencies --   3207.9597              3215.2115              3217.5023
 Red. masses --      1.0858                 1.0885                 1.0867
 Frc consts  --      6.5838                 6.6296                 6.6280
 IR Inten    --      0.9755                 5.6288                 0.8017

                     85                     86                     87
                      A                      A                      A
 Frequencies --   3222.6233              3226.7410              3231.3760
 Red. masses --      1.0926                 1.0899                 1.0959
 Frc consts  --      6.6852                 6.6858                 6.7418
 IR Inten    --     39.7137                15.8840                38.8906

                     88                     89                     90
                      A                      A                      A
 Frequencies --   3235.2159              3238.8250              3246.0438
 Red. masses --      1.0942                 1.0950                 1.0946
 Frc consts  --      6.7475                 6.7674                 6.7953
 IR Inten    --     22.2975                12.0142                 9.4612

                     91                     92                     93
                      A                      A                      A
 Frequencies --   3252.5783              3337.3824              3500.9563
 Red. masses --      1.0939                 1.0986                 1.0762
 Frc consts  --      6.8185                 7.2093                 7.7715
 IR Inten    --      5.1007                 9.4527               179.9124

 - Thermochemistry -
 -------------------
 Temperature   298.150 Kelvin.  Pressure   1.00000 Atm.
 Atom     1 has atomic number  8 and mass  15.99491

 Molecular mass:   300.05686 amu.
 Principal axes and moments of inertia in atomic units:
                           1         2         3
     Eigenvalues --  3292.11459********************
           X            0.99996   0.00646   0.00582
           Y           -0.00624   0.99930  -0.03698
           Z           -0.00605   0.03694   0.99930
 This molecule is an asymmetric top.
 Rotational symmetry number  1.
 Warning -- assumption of classical behavior for rotation
           may cause significant error
 Rotational temperatures (Kelvin)      0.02631     0.00703     0.00653
 Rotational constants (GHZ):           0.54820     0.14655     0.13616
 Zero-point vibrational energy     650311.4 (Joules/Mol)
                                  155.42815 (Kcal/Mol)
 Warning -- explicit consideration of  25 degrees of freedom as
           vibrations may cause significant error
 Vibrational temperatures:     18.90    35.48    40.54    66.53    93.24
          (Kelvin)            127.88   176.81   203.03   242.54   313.93
                              366.34   402.25   434.92   440.63   523.39
                              553.20   592.27   592.70   594.72   655.11
                              686.49   718.68   772.10   792.82   854.93
                              898.75   907.74   959.95   988.29  1000.65
                             1014.52  1024.95  1041.21  1100.22  1129.48
                             1130.71  1188.17  1235.70  1242.07  1243.18
                             1360.69  1365.29  1380.36  1389.99  1415.28
                             1421.03  1457.04  1457.97  1462.98  1469.31
                             1494.50  1506.35  1516.69  1548.91  1560.67
                             1595.33  1596.61  1630.68  1711.96  1717.67
                             1727.39  1731.76  1751.25  1859.42  1874.23
                             1930.04  1948.11  1963.31  1969.89  2008.44
                             2133.75  2148.63  2163.73  2187.23  2188.56
                             2236.40  2340.57  2361.29  2366.63  2375.22
                             2395.94  4615.54  4625.97  4629.27  4636.64
                             4642.56  4649.23  4654.75  4659.95  4670.33
                             4679.73  4801.75  5037.10

 Zero-point correction=                           0.247691 (Hartree/Particle)
 Thermal correction to Energy=                    0.264985
 Thermal correction to Enthalpy=                  0.265929
 Thermal correction to Gibbs Free Energy=         0.198861
 Sum of electronic and zero-point Energies=          -1311.844772
 Sum of electronic and thermal Energies=             -1311.827478
 Sum of electronic and thermal Enthalpies=           -1311.826534
 Sum of electronic and thermal Free Energies=        -1311.893602

                     E (Thermal)             CV                S
                      KCal/Mol        Cal/Mol-Kelvin    Cal/Mol-Kelvin
 Total                  166.280             66.957            141.156
 Electronic               0.000              0.000              0.000
 Translational            0.889              2.981             42.993
 Rotational               0.889              2.981             34.640
 Vibrational            164.503             60.996             63.523
 Vibration     1          0.593              1.987              7.469
 Vibration     2          0.593              1.985              6.218
 Vibration     3          0.593              1.984              5.954
 Vibration     4          0.595              1.979              4.972
 Vibration     5          0.597              1.971              4.305
 Vibration     6          0.602              1.957              3.685
 Vibration     7          0.610              1.930              3.054
 Vibration     8          0.615              1.912              2.789
 Vibration     9          0.625              1.881              2.451
 Vibration    10          0.646              1.813              1.974
 Vibration    11          0.665              1.755              1.698
 Vibration    12          0.680              1.711              1.536
 Vibration    13          0.694              1.669              1.404
 Vibration    14          0.697              1.662              1.383
 Vibration    15          0.737              1.547              1.106
 Vibration    16          0.753              1.503              1.021
 Vibration    17          0.776              1.445              0.921
 Vibration    18          0.776              1.444              0.920
 Vibration    19          0.777              1.441              0.915
 Vibration    20          0.814              1.349              0.780
 Vibration    21          0.834              1.301              0.718
 Vibration    22          0.855              1.251              0.659
 Vibration    23          0.892              1.169              0.573
 Vibration    24          0.906              1.137              0.542
 Vibration    25          0.952              1.044              0.460

 Optimization completed.
    -- Stationary point found.
 Normal termination of Gaussian 16 at Tue Sep 22 20:25:29 2020.

 ----------------------------------------------------------------------
 #p b3lyp/6-31G(d) scrf=(iefpcm,read,solvent=water) geom=allcheck guess
 =read
 ----------------------------------------------------------------------

 Structure from the checkpoint file:  "SM42_m0.n.7.pdb.xyz.mst.n.w.chk"
 -------------------
 SM42_m0.n.7.pdb.xyz
 -------------------
 Charge =  0 Multiplicity = 1

 SCF Done:  E(RB3LYP) =  -1312.09246545     A.U. after    6 cycles
 Normal termination of Gaussian 16 at Tue Sep 22 20:26:05 2020.

 -----------------------------
 #p B3LYP/6-31G* geom=allcheck
 -----------------------------

 Structure from the checkpoint file:  "SM42_m0.n.7.pdb.xyz.mst.n.w.chk"
 -------------------
 SM42_m0.n.7.pdb.xyz
 -------------------
 Charge =  0 Multiplicity = 1

 SCF Done:  E(RB3LYP) =  -1312.07189344     A.U. after   15 cycles
 Normal termination of Gaussian 16 at Tue Sep 22 20:26:55 2020.
 Gaussian 16:  ES64L-G16RevB.01 20-Dec-2017

 ----------------------------------------------------------------------
 #p mp2/aug-cc-pVDZ scf=(MaxCycle=2000,NoVarAcc,NoIncFock) maxdisk=120G
 B geom=allcheck
 ----------------------------------------------------------------------

 Structure from the checkpoint file:  "SM42_m0.n.7.pdb.xyz.mst.n.w.chk"
 -------------------
 SM42_m0.n.7.pdb.xyz
 -------------------
 Charge =  0 Multiplicity = 1

                         Standard orientation:
 ---------------------------------------------------------------------
 Center     Atomic      Atomic             Coordinates (Angstroms)
 Number     Number       Type             X           Y           Z
 ---------------------------------------------------------------------
      1          8           0        3.563132   -2.147018   -0.458922
      2         16           0        2.389313   -1.284396   -0.617854
      3          7           0        1.334813   -1.799292    0.609182
      4          6           0        0.063969   -1.238160    0.771996
      5          7           0       -0.384315   -1.016086    1.994186
      6          8           0       -1.694492   -0.550169    1.812206
      7          6           0       -1.975919   -0.488744    0.487500
      8          6           0       -3.299469   -0.010950    0.101677
      9          6           0       -3.647390    0.071592   -1.257063
     10          6           0       -4.908333    0.528299   -1.629791
     11          6           0       -5.835206    0.907671   -0.654842
     12          6           0       -5.494429    0.827420    0.697260
     13          6           0       -4.234868    0.371155    1.077021
     14          6           0       -0.893286   -0.921955   -0.227504
     15          6           0        2.864139    0.398436   -0.267075
     16          6           0        2.151171    1.442929   -0.858059
     17          6           0        2.517449    2.754803   -0.559752
     18          6           0        3.576797    3.004459    0.314936
     19          6           0        4.281787    1.946825    0.894988
     20          6           0        3.928287    0.630197    0.607440
     21          8           0        1.609768   -1.296996   -1.859874
     22          1           0        1.834133   -1.956033    1.487506
     23          1           0       -2.930596   -0.221206   -2.016324
     24          1           0       -5.168028    0.588542   -2.681146
     25          1           0       -6.817050    1.263783   -0.947979
     26          1           0       -6.210128    1.120690    1.457638
     27          1           0       -3.968695    0.308344    2.125343
     28          1           0       -0.775913   -1.014689   -1.292799
     29          1           0        1.341649    1.228705   -1.544142
     30          1           0        1.978541    3.578482   -1.014035
     31          1           0        3.857779    4.026833    0.542115
     32          1           0        5.108781    2.145624    1.567093
     33          1           0        4.471556   -0.201482    1.039144
 ---------------------------------------------------------------------

 SCF Done:  E(RHF) =  -1306.00009512     A.U. after   18 cycles
 E2 =    -0.3109816883D+01 EUMP2 =    -0.13091099120070D+04

 The electronic state is 1-A.
 Alpha  occ. eigenvalues --  -92.24267 -20.65593 -20.57198 -20.57026 -15.63897
 Alpha  occ. eigenvalues --  -15.62781 -11.34350 -11.33972 -11.29907 -11.28384
 Alpha  occ. eigenvalues --  -11.28338 -11.27883 -11.27439 -11.27230 -11.27200
 Alpha  occ. eigenvalues --  -11.26609 -11.26288 -11.26241 -11.25926 -11.25803
 Alpha  occ. eigenvalues --  -11.24789  -9.21003  -6.89550  -6.89497  -6.89391
 Alpha  occ. eigenvalues --   -1.49687  -1.47276  -1.35304  -1.28280  -1.19370
 Alpha  occ. eigenvalues --   -1.18245  -1.14465  -1.09759  -1.06867  -1.05394
 Alpha  occ. eigenvalues --   -1.03699  -1.02920  -0.93231  -0.88422  -0.86565
 Alpha  occ. eigenvalues --   -0.86137  -0.84204  -0.81360  -0.80433  -0.76079
 Alpha  occ. eigenvalues --   -0.74815  -0.71758  -0.69565  -0.68799  -0.67479
 Alpha  occ. eigenvalues --   -0.66657  -0.66297  -0.64975  -0.64830  -0.63713
 Alpha  occ. eigenvalues --   -0.62587  -0.62420  -0.60961  -0.59895  -0.57536
 Alpha  occ. eigenvalues --   -0.55968  -0.54902  -0.53294  -0.53128  -0.52558
 Alpha  occ. eigenvalues --   -0.52277  -0.51163  -0.50918  -0.50805  -0.48671
 Alpha  occ. eigenvalues --   -0.48280  -0.47502  -0.40956  -0.39846  -0.37302
 Alpha  occ. eigenvalues --   -0.36789  -0.35477  -0.32227
 Alpha virt. eigenvalues --    0.02613   0.02945   0.03671   0.03963   0.04456
 Alpha virt. eigenvalues --    0.05100   0.05531   0.05695   0.06258   0.06410
 Alpha virt. eigenvalues --    0.06728   0.07336   0.07645   0.08336   0.08688

 Mulliken charges:
               1
     1  O   -1.142591
     2  S    3.055156
     3  N   -0.955372
     4  C    0.055737
     5  N   -0.322677
     6  O   -1.080367
     7  C   -0.045901
     8  C    1.432035
     9  C    0.620208
    10  C    0.057665
    11  C    0.539991
    12  C    0.240808
    13  C    0.382681
    14  C    1.847266
    15  C    0.756425
    16  C    0.303698
    17  C    0.420002
    18  C    0.490663
    19  C    0.583056
    20  C   -0.159608
    21  O   -1.245187
    22  H   -0.083060
    23  H   -0.597015
    24  H   -0.488427
    25  H   -0.435879
    26  H   -0.443182
    27  H   -0.674080
    28  H   -0.629278
    29  H   -0.571532
    30  H   -0.468844
    31  H   -0.436047
    32  H   -0.444190
    33  H   -0.562152
 Sum of Mulliken charges =  -0.00000

 Dipole moment (field-independent basis, Debye):
    X=             -1.7294    Y=              5.4646    Z=              0.3282  Tot=              5.7412
 Quadrupole moment (field-independent basis, Debye-Ang):
   XX=           -110.5870   YY=           -130.7159   ZZ=           -133.2730
   XY=             10.7574   XZ=             15.6220   YZ=             -3.9348

 Normal termination of Gaussian 16 at Tue Sep 22 21:44:03 2020.
