 Gaussian 16, Revision B.01,

 ----------------------------------------------------------------------
 #p b3lyp/6-31G(d) opt freq NoSymm scf=(MaxCycle=2000,NoVarAcc,NoIncFoc
 k) scrf=(iefpcm,read,solvent=water)
 ----------------------------------------------------------------------

 -------------------
 SM42_m1.a.7.pdb.xyz
 -------------------
 Symbolic Z-matrix:
 Charge = -1 Multiplicity = 1

 SCF Done:  E(RB3LYP) =  -1311.62208348     A.U. after   13 cycles
 SCF Done:  E(RB3LYP) =  -1311.62188920     A.U. after   10 cycles
 SCF Done:  E(RB3LYP) =  -1311.62193925     A.U. after    9 cycles
 SCF Done:  E(RB3LYP) =  -1311.62207944     A.U. after   10 cycles
 SCF Done:  E(RB3LYP) =  -1311.62208508     A.U. after    8 cycles
 SCF Done:  E(RB3LYP) =  -1311.62190134     A.U. after   11 cycles
 SCF Done:  E(RB3LYP) =  -1311.62192176     A.U. after    9 cycles
 SCF Done:  E(RB3LYP) =  -1311.62207725     A.U. after   10 cycles
 SCF Done:  E(RB3LYP) =  -1311.62208478     A.U. after    9 cycles
 SCF Done:  E(RB3LYP) =  -1311.62208513     A.U. after    8 cycles
 SCF Done:  E(RB3LYP) =  -1311.62208498     A.U. after    9 cycles
 SCF Done:  E(RB3LYP) =  -1311.62191624     A.U. after   11 cycles
 SCF Done:  E(RB3LYP) =  -1311.62191521     A.U. after    6 cycles
 SCF Done:  E(RB3LYP) =  -1311.62207565     A.U. after   10 cycles
 SCF Done:  E(RB3LYP) =  -1311.62208497     A.U. after    9 cycles
 SCF Done:  E(RB3LYP) =  -1311.62191519     A.U. after   11 cycles
 Optimization completed.
    -- Stationary point found.
 Normal termination of Gaussian 16 at Thu Sep 24 06:31:48 2020.

 --------------------------------------------------------------------
 #P Geom=AllCheck Guess=TCheck SCRF=Check GenChk RB3LYP/6-31G(d) Freq
 --------------------------------------------------------------------

 Structure from the checkpoint file:  "SM42_m1.a.7.pdb.xyz.mst.a.w.chk"
 -------------------
 SM42_m1.a.7.pdb.xyz
 -------------------
 Charge = -1 Multiplicity = 1

 SCF Done:  E(RB3LYP) =  -1311.62191519     A.U. after    1 cycles

  Exact polarizability: 320.427 -31.792 228.243  10.953 -46.146 258.234
 Approx polarizability: 343.543 -39.609 261.042  12.721 -56.966 327.326

                      1                      2                      3
                      A                      A                      A
 Frequencies --     15.3147                23.8875                25.9746
 Red. masses --      5.5066                 4.0014                 4.1838
 Frc consts  --      0.0008                 0.0013                 0.0017
 IR Inten    --      3.0774                 1.3955                 0.3510

                      4                      5                      6
                      A                      A                      A
 Frequencies --     46.2427                69.9943                88.2570
 Red. masses --      7.3874                 7.3021                 5.1036
 Frc consts  --      0.0093                 0.0211                 0.0234
 IR Inten    --      2.6142                 2.2733                 4.7720

                      7                      8                      9
                      A                      A                      A
 Frequencies --    131.8794               153.4228               181.2068
 Red. masses --      6.6425                 6.6155                 6.3474
 Frc consts  --      0.0681                 0.0917                 0.1228
 IR Inten    --      2.4494                 7.9836                 1.4632

                     10                     11                     12
                      A                      A                      A
 Frequencies --    222.8930               267.6422               289.8405
 Red. masses --      5.3680                 9.5392                 6.5216
 Frc consts  --      0.1571                 0.4026                 0.3228
 IR Inten    --      3.1061                 2.3891                 1.6045

                     13                     14                     15
                      A                      A                      A
 Frequencies --    303.7883               323.0079               362.7179
 Red. masses --      8.4872                 8.0746                 8.4064
 Frc consts  --      0.4615                 0.4964                 0.6516
 IR Inten    --      9.0871                 0.7926                 2.4004

                     16                     17                     18
                      A                      A                      A
 Frequencies --    378.0171               411.8107               413.3730
 Red. masses --      9.2698                 2.9799                 3.0024
 Frc consts  --      0.7805                 0.2977                 0.3023
 IR Inten    --      1.2661                 0.0070                 0.9841

                     19                     20                     21
                      A                      A                      A
 Frequencies --    426.5806               455.8345               495.2710
 Red. masses --     10.0466                 5.8870                 4.4033
 Frc consts  --      1.0771                 0.7207                 0.6364
 IR Inten    --      7.0041                 3.5103                 1.5565

                     22                     23                     24
                      A                      A                      A
 Frequencies --    501.0208               551.3479               582.8912
 Red. masses --      4.7044                10.8451                 9.5151
 Frc consts  --      0.6958                 1.9424                 1.9047
 IR Inten    --      6.8269               152.8727               336.3224

                     25                     26                     27
                      A                      A                      A
 Frequencies --    627.3030               631.2080               663.2447
 Red. masses --      6.4272                 6.4393                 7.3755
 Frc consts  --      1.4901                 1.5116                 1.9116
 IR Inten    --      0.2102                 0.0335                 1.1880

                     28                     29                     30
                      A                      A                      A
 Frequencies --    680.4975               702.2878               705.1781
 Red. masses --      7.5014                 2.4826                 1.8540
 Frc consts  --      2.0467                 0.7214                 0.5432
 IR Inten    --     30.7624                53.5758                48.9029

                     31                     32                     33
                      A                      A                      A
 Frequencies --    707.8322               717.0364               741.8933
 Red. masses --      5.2348                 4.3748                 6.7360
 Frc consts  --      1.5453                 1.3252                 2.1844
 IR Inten    --      4.4412                 5.8694               116.8141

                     34                     35                     36
                      A                      A                      A
 Frequencies --    764.2685               783.0037               813.8599
 Red. masses --      1.5552                 1.6545                 1.6379
 Frc consts  --      0.5352                 0.5977                 0.6392
 IR Inten    --     27.3180                76.5190                27.3487

                     37                     38                     39
                      A                      A                      A
 Frequencies --    862.2555               863.4898               919.2311
 Red. masses --      1.2473                 1.2523                12.3439
 Frc consts  --      0.5464                 0.5502                 6.1454
 IR Inten    --      0.1730                 0.0848                53.5329

                     40                     41                     42
                      A                      A                      A
 Frequencies --    932.6360               938.9655               940.7550
 Red. masses --     10.4377                 1.3316                 1.3953
 Frc consts  --      5.3491                 0.6917                 0.7276
 IR Inten    --    196.7631                 2.8412                 3.4242

                     43                     44                     45
                      A                      A                      A
 Frequencies --    956.6628               981.4793               985.6171
 Red. masses --      8.9368                 1.3492                 1.3496
 Frc consts  --      4.8189                 0.7657                 0.7725
 IR Inten    --     45.0642                 0.0205                 0.4862

                     46                     47                     48
                      A                      A                      A
 Frequencies --   1009.6352              1012.3977              1013.8138
 Red. masses --      1.2599                 1.3253                 5.0934
 Frc consts  --      0.7567                 0.8004                 3.0844
 IR Inten    --      0.1135                 0.3371                10.6754

                     49                     50                     51
                      A                      A                      A
 Frequencies --   1016.3584              1037.4380              1049.8299
 Red. masses --      6.1118                 3.3185                 2.6496
 Frc consts  --      3.7197                 2.1043                 1.7206
 IR Inten    --      0.4657                60.2471                10.6814

                     52                     53                     54
                      A                      A                      A
 Frequencies --   1055.2696              1078.4923              1096.5629
 Red. masses --      2.4064                 2.6965                 6.1333
 Frc consts  --      1.5788                 1.8479                 4.3452
 IR Inten    --     22.2903               296.3546               158.2413

                     55                     56                     57
                      A                      A                      A
 Frequencies --   1105.7423              1107.5689              1121.3977
 Red. masses --      1.6044                 1.5761                 3.5307
 Frc consts  --      1.1557                 1.1391                 2.6160
 IR Inten    --     28.3758                25.0418               184.5207

                     58                     59                     60
                      A                      A                      A
 Frequencies --   1186.7789              1187.1244              1199.2718
 Red. masses --      1.0972                 1.0936                 1.2934
 Frc consts  --      0.9105                 0.9081                 1.0960
 IR Inten    --      0.4729                 0.1559                31.4864

                     61                     62                     63
                      A                      A                      A
 Frequencies --   1201.3880              1209.9108              1230.6481
 Red. masses --      1.1512                 5.6538                 2.5209
 Frc consts  --      0.9790                 4.8763                 2.2495
 IR Inten    --      8.2049               316.4356               169.6999

                     64                     65                     66
                      A                      A                      A
 Frequencies --   1296.3157              1337.3630              1351.3092
 Red. masses --      4.4428                 1.4867                 3.2638
 Frc consts  --      4.3988                 1.5666                 3.5114
 IR Inten    --     18.1864                 4.3979                43.4823

                     67                     68                     69
                      A                      A                      A
 Frequencies --   1360.0998              1367.6489              1437.8699
 Red. masses --      5.1877                 2.0473                 7.3323
 Frc consts  --      5.6542                 2.2563                 8.9316
 IR Inten    --      1.2221                 2.7580               345.1660

                     70                     71                     72
                      A                      A                      A
 Frequencies --   1476.7477              1488.4257              1497.5108
 Red. masses --      5.6142                 2.1991                 2.5487
 Frc consts  --      7.2135                 2.8704                 3.3675
 IR Inten    --    570.6091                26.9816               164.2690

                     73                     74                     75
                      A                      A                      A
 Frequencies --   1523.8414              1540.6723              1625.6416
 Red. masses --      2.0876                 2.4092                 5.7931
 Frc consts  --      2.8561                 3.3693                 9.0201
 IR Inten    --      6.3403               152.0685               144.6925

                     76                     77                     78
                      A                      A                      A
 Frequencies --   1642.3162              1644.8331              1649.9930
 Red. masses --      5.9080                 5.5363                 6.8825
 Frc consts  --      9.3887                 8.8250                11.0398
 IR Inten    --      0.0583                 0.9479               111.0814

                     79                     80                     81
                      A                      A                      A
 Frequencies --   1666.1834              3204.4388              3206.8434
 Red. masses --      6.0768                 1.0856                 1.0859
 Frc consts  --      9.9397                 6.5680                 6.5793
 IR Inten    --     26.1474                 2.5251                 0.0852

                     82                     83                     84
                      A                      A                      A
 Frequencies --   3211.1724              3215.6785              3220.1881
 Red. masses --      1.0885                 1.0890                 1.0925
 Frc consts  --      6.6131                 6.6349                 6.6748
 IR Inten    --      9.2503                17.6488                43.1617

                     85                     86                     87
                      A                      A                      A
 Frequencies --   3224.4968              3228.3291              3231.9466
 Red. masses --      1.0929                 1.0960                 1.0959
 Frc consts  --      6.6953                 6.7300                 6.7447
 IR Inten    --     34.1577                41.9081                25.3454

                     88                     89                     90
                      A                      A                      A
 Frequencies --   3237.4551              3244.6561              3330.4510
 Red. masses --      1.0942                 1.0927                 1.0971
 Frc consts  --      6.7568                 6.7777                 7.1698
 IR Inten    --     12.4624                 8.8378                 5.0134

 - Thermochemistry -
 -------------------
 Temperature   298.150 Kelvin.  Pressure   1.00000 Atm.
 Atom     1 has atomic number  8 and mass  15.99491

 Molecular mass:   299.04904 amu.
 Principal axes and moments of inertia in atomic units:
                           1         2         3
     Eigenvalues --  3576.24239********************
           X            0.99824  -0.00215   0.05920
           Y           -0.01492   0.95798   0.28645
           Z           -0.05733  -0.28683   0.95626
 This molecule is an asymmetric top.
 Rotational symmetry number  1.
 Warning -- assumption of classical behavior for rotation
           may cause significant error
 Rotational temperatures (Kelvin)      0.02422     0.00748     0.00671
 Rotational constants (GHZ):           0.50465     0.15595     0.13982
 Zero-point vibrational energy     616214.3 (Joules/Mol)
                                  147.27874 (Kcal/Mol)
 Warning -- explicit consideration of  24 degrees of freedom as
           vibrations may cause significant error
 Vibrational temperatures:     22.03    34.37    37.37    66.53   100.71
          (Kelvin)            126.98   189.75   220.74   260.72   320.69
                              385.08   417.02   437.08   464.74   521.87
                              543.88   592.50   594.75   613.75   655.84
                              712.58   720.86   793.27   838.65   902.55
                              908.17   954.26   979.08  1010.44  1014.59
                             1018.41  1031.66  1067.42  1099.61  1126.57
                             1170.96  1240.59  1242.37  1322.57  1341.86
                             1350.96  1353.54  1376.42  1412.13  1418.08
                             1452.64  1456.61  1458.65  1462.31  1492.64
                             1510.47  1518.30  1551.71  1577.71  1590.92
                             1593.54  1613.44  1707.51  1708.01  1725.48
                             1728.53  1740.79  1770.63  1865.11  1924.17
                             1944.23  1956.88  1967.74  2068.77  2124.71
                             2141.51  2154.58  2192.47  2216.68  2338.94
                             2362.93  2366.55  2373.97  2397.27  4610.47
                             4613.93  4620.16  4626.64  4633.13  4639.33
                             4644.85  4650.05  4657.98  4668.34  4791.78

 Zero-point correction=                           0.234704 (Hartree/Particle)
 Thermal correction to Energy=                    0.251679
 Thermal correction to Enthalpy=                  0.252623
 Thermal correction to Gibbs Free Energy=         0.186274
 Sum of electronic and zero-point Energies=          -1311.387212
 Sum of electronic and thermal Energies=             -1311.370236
 Sum of electronic and thermal Enthalpies=           -1311.369292
 Sum of electronic and thermal Free Energies=        -1311.435641

                     E (Thermal)             CV                S
                      KCal/Mol        Cal/Mol-Kelvin    Cal/Mol-Kelvin
 Total                  157.931             65.726            139.644
 Electronic               0.000              0.000              0.000
 Translational            0.889              2.981             42.983
 Rotational               0.889              2.981             34.634
 Vibrational            156.154             59.765             62.026
 Vibration     1          0.593              1.986              7.164
 Vibration     2          0.593              1.985              6.282
 Vibration     3          0.593              1.985              6.115
 Vibration     4          0.595              1.979              4.972
 Vibration     5          0.598              1.968              4.154
 Vibration     6          0.601              1.957              3.698
 Vibration     7          0.612              1.921              2.918
 Vibration     8          0.619              1.899              2.629
 Vibration     9          0.630              1.865              2.316
 Vibration    10          0.649              1.806              1.935
 Vibration    11          0.673              1.733              1.611
 Vibration    12          0.686              1.693              1.475
 Vibration    13          0.695              1.667              1.396
 Vibration    14          0.708              1.629              1.295
 Vibration    15          0.737              1.549              1.110
 Vibration    16          0.748              1.517              1.047
 Vibration    17          0.776              1.445              0.920
 Vibration    18          0.777              1.441              0.915
 Vibration    19          0.788              1.412              0.870
 Vibration    20          0.814              1.348              0.778
 Vibration    21          0.851              1.261              0.670
 Vibration    22          0.856              1.248              0.656
 Vibration    23          0.907              1.137              0.541
 Vibration    24          0.940              1.068              0.480

 Optimization completed.
    -- Stationary point found.
 Normal termination of Gaussian 16 at Thu Sep 24 06:42:42 2020.

 ----------------------------------------------------------------------
 #p b3lyp/6-31G(d) scrf=(iefpcm,read,solvent=water) geom=allcheck guess
 =read
 ----------------------------------------------------------------------

 Structure from the checkpoint file:  "SM42_m1.a.7.pdb.xyz.mst.a.w.chk"
 -------------------
 SM42_m1.a.7.pdb.xyz
 -------------------
 Charge = -1 Multiplicity = 1

 SCF Done:  E(RB3LYP) =  -1311.62190559     A.U. after    7 cycles
 Normal termination of Gaussian 16 at Thu Sep 24 06:43:22 2020.

 -----------------------------
 #p B3LYP/6-31G* geom=allcheck
 -----------------------------

 Structure from the checkpoint file:  "SM42_m1.a.7.pdb.xyz.mst.a.w.chk"
 -------------------
 SM42_m1.a.7.pdb.xyz
 -------------------
 Charge = -1 Multiplicity = 1

 SCF Done:  E(RB3LYP) =  -1311.52582371     A.U. after   15 cycles
 Normal termination of Gaussian 16 at Thu Sep 24 06:44:09 2020.
 Gaussian 16:  ES64L-G16RevB.01 20-Dec-2017

 ----------------------------------------------------------------------
 #p mp2/aug-cc-pVDZ scf=(MaxCycle=2000,NoVarAcc,NoIncFock) maxdisk=120G
 B geom=allcheck
 ----------------------------------------------------------------------

 Structure from the checkpoint file:  "SM42_m1.a.7.pdb.xyz.mst.a.w.chk"
 -------------------
 SM42_m1.a.7.pdb.xyz
 -------------------
 Charge = -1 Multiplicity = 1

                         Standard orientation:
 ---------------------------------------------------------------------
 Center     Atomic      Atomic             Coordinates (Angstroms)
 Number     Number       Type             X           Y           Z
 ---------------------------------------------------------------------
      1          8           0        3.627340   -1.915032   -0.873547
      2         16           0        2.352795   -1.160099   -0.792486
      3          7           0        1.422242   -1.944901    0.249938
      4          6           0        0.115118   -1.551720    0.413097
      5          7           0       -0.575229   -2.110791    1.410178
      6          8           0       -1.875990   -1.554244    1.329192
      7          6           0       -1.923148   -0.677546    0.299390
      8          6           0       -3.193703    0.002166    0.056814
      9          6           0       -3.297545    0.965312   -0.960503
     10          6           0       -4.507135    1.612809   -1.195433
     11          6           0       -5.629677    1.310360   -0.419315
     12          6           0       -5.533520    0.354367    0.594389
     13          6           0       -4.325398   -0.296679    0.833105
     14          6           0       -0.709490   -0.628690   -0.318980
     15          6           0        2.758724    0.440970   -0.067758
     16          6           0        2.560977    1.605685   -0.807899
     17          6           0        2.897744    2.840457   -0.248508
     18          6           0        3.429076    2.902274    1.040168
     19          6           0        3.624890    1.729330    1.775428
     20          6           0        3.289991    0.493977    1.224315
     21          8           0        1.708567   -0.851536   -2.099941
     22          1           0       -2.428715    1.205507   -1.563576
     23          1           0       -4.573858    2.354891   -1.983914
     24          1           0       -6.571436    1.816312   -0.603621
     25          1           0       -6.400893    0.114294    1.200400
     26          1           0       -4.249712   -1.039634    1.618149
     27          1           0       -0.419823   -0.057525   -1.183758
     28          1           0        2.147116    1.533776   -1.806143
     29          1           0        2.743759    3.750051   -0.819369
     30          1           0        3.689217    3.861888    1.474004
     31          1           0        4.036482    1.777708    2.777865
     32          1           0        3.433295   -0.417779    1.793438
 ---------------------------------------------------------------------

 SCF Done:  E(RHF) =  -1305.45637828     A.U. after   18 cycles
 E2 =    -0.3123042695D+01 EUMP2 =    -0.13085794209719D+04

 The electronic state is 1-A.
 Alpha  occ. eigenvalues --  -92.06023 -20.50673 -20.39750 -20.38918 -15.46353
 Alpha  occ. eigenvalues --  -15.39598 -11.20158 -11.18246 -11.17511 -11.17187
 Alpha  occ. eigenvalues --  -11.17029 -11.16954 -11.16761 -11.16444 -11.15868
 Alpha  occ. eigenvalues --  -11.15775 -11.15428 -11.15352 -11.15175 -11.15116
 Alpha  occ. eigenvalues --  -11.11192  -9.02732  -6.71294  -6.71204  -6.71169
 Alpha  occ. eigenvalues --   -1.34323  -1.28719  -1.16436  -1.08787  -1.07888
 Alpha  occ. eigenvalues --   -1.06418  -0.98829  -0.96461  -0.94318  -0.93102
 Alpha  occ. eigenvalues --   -0.92777  -0.90976  -0.77511  -0.76912  -0.75422
 Alpha  occ. eigenvalues --   -0.73862  -0.70245  -0.67807  -0.64515  -0.62911
 Alpha  occ. eigenvalues --   -0.60323  -0.58084  -0.55687  -0.54609  -0.54147
 Alpha  occ. eigenvalues --   -0.53262  -0.52253  -0.51622  -0.51424  -0.50693
 Alpha  occ. eigenvalues --   -0.49882  -0.49050  -0.47641  -0.43767  -0.43115
 Alpha  occ. eigenvalues --   -0.42946  -0.42726  -0.41456  -0.41152  -0.40547
 Alpha  occ. eigenvalues --   -0.36668  -0.34894  -0.33689  -0.32964  -0.31642
 Alpha  occ. eigenvalues --   -0.30259  -0.29590  -0.26402  -0.26228  -0.24677
 Alpha  occ. eigenvalues --   -0.24521  -0.20910  -0.18586
 Alpha virt. eigenvalues --    0.08806   0.09711   0.10029   0.10780   0.11342
 Alpha virt. eigenvalues --    0.12177   0.13472   0.13992   0.15016   0.15437
 Alpha virt. eigenvalues --    0.15849   0.17124   0.17692   0.18158   0.18301

 Mulliken charges:
               1
     1  O   -1.259889
     2  S    3.027645
     3  N   -1.270919
     4  C   -0.167681
     5  N   -0.424748
     6  O   -1.129280
     7  C    0.126218
     8  C    1.412277
     9  C    0.526609
    10  C    0.077032
    11  C    0.512758
    12  C    0.245314
    13  C    0.324892
    14  C    1.896144
    15  C    0.808136
    16  C    0.283115
    17  C    0.460181
    18  C    0.561010
    19  C    0.496269
    20  C   -0.137282
    21  O   -1.363234
    22  H   -0.554695
    23  H   -0.503928
    24  H   -0.457582
    25  H   -0.458309
    26  H   -0.671095
    27  H   -0.727174
    28  H   -0.597562
    29  H   -0.487080
    30  H   -0.462930
    31  H   -0.476313
    32  H   -0.607902
 Sum of Mulliken charges =  -1.00000

 Dipole moment (field-independent basis, Debye):
    X=             -6.9309    Y=             10.3488    Z=              0.9334  Tot=             12.4902
 Quadrupole moment (field-independent basis, Debye-Ang):
   XX=           -164.3101   YY=           -154.5564   ZZ=           -144.0749
   XY=             14.8500   XZ=             14.3083   YZ=             -2.8061

 Normal termination of Gaussian 16 at Thu Sep 24 07:28:14 2020.
