 Gaussian 16, Revision B.01,

 ----------------------------------------------------------------------
 #p b3lyp/6-31G(d) opt freq NoSymm scf=(MaxCycle=2000,NoVarAcc,NoIncFoc
 k) scrf=(iefpcm,read,solvent=water)
 ----------------------------------------------------------------------

 -------------------
 SM42_m2.b.5.pdb.xyz
 -------------------
 Symbolic Z-matrix:
 Charge =  1 Multiplicity = 1

 SCF Done:  E(RB3LYP) =  -1312.53202202     A.U. after   13 cycles
 SCF Done:  E(RB3LYP) =  -1312.53181656     A.U. after   10 cycles
 SCF Done:  E(RB3LYP) =  -1312.53188445     A.U. after    9 cycles
 SCF Done:  E(RB3LYP) =  -1312.53201701     A.U. after    9 cycles
 SCF Done:  E(RB3LYP) =  -1312.53202350     A.U. after    8 cycles
 SCF Done:  E(RB3LYP) =  -1312.53187714     A.U. after   10 cycles
 SCF Done:  E(RB3LYP) =  -1312.53188446     A.U. after    8 cycles
 SCF Done:  E(RB3LYP) =  -1312.53201489     A.U. after    9 cycles
 SCF Done:  E(RB3LYP) =  -1312.53202295     A.U. after    8 cycles
 SCF Done:  E(RB3LYP) =  -1312.53202350     A.U. after    7 cycles
 SCF Done:  E(RB3LYP) =  -1312.53202248     A.U. after    8 cycles
 SCF Done:  E(RB3LYP) =  -1312.53187640     A.U. after   10 cycles
 SCF Done:  E(RB3LYP) =  -1312.53188382     A.U. after    7 cycles
 SCF Done:  E(RB3LYP) =  -1312.53201354     A.U. after    9 cycles
 SCF Done:  E(RB3LYP) =  -1312.53202247     A.U. after    8 cycles
 SCF Done:  E(RB3LYP) =  -1312.53188209     A.U. after   10 cycles
 Optimization completed.
    -- Stationary point found.
 Normal termination of Gaussian 16 at Thu Sep 24 06:36:49 2020.

 --------------------------------------------------------------------
 #P Geom=AllCheck Guess=TCheck SCRF=Check GenChk RB3LYP/6-31G(d) Freq
 --------------------------------------------------------------------

 Structure from the checkpoint file:  "SM42_m2.b.5.pdb.xyz.mst.b.w.chk"
 -------------------
 SM42_m2.b.5.pdb.xyz
 -------------------
 Charge =  1 Multiplicity = 1

 SCF Done:  E(RB3LYP) =  -1312.53188209     A.U. after    1 cycles

  Exact polarizability: 345.360 -58.545 254.636  43.740 -18.712 204.295
 Approx polarizability: 366.468 -68.542 312.267  51.392 -14.807 241.544

                      1                      2                      3
                      A                      A                      A
 Frequencies --     14.4454                23.4702                37.9903
 Red. masses --      5.3546                 4.0690                 4.1241
 Frc consts  --      0.0007                 0.0013                 0.0035
 IR Inten    --      0.5405                 0.3358                 0.1662

                      4                      5                      6
                      A                      A                      A
 Frequencies --     44.5143                70.1860                93.7800
 Red. masses --      6.2806                 7.1228                 4.6436
 Frc consts  --      0.0073                 0.0207                 0.0241
 IR Inten    --      2.4047                 5.0900                 2.4669

                      7                      8                      9
                      A                      A                      A
 Frequencies --    123.0786               155.8041               169.5985
 Red. masses --      5.7762                 7.1035                 5.9627
 Frc consts  --      0.0516                 0.1016                 0.1010
 IR Inten    --      5.0829                10.1177                 2.2862

                     10                     11                     12
                      A                      A                      A
 Frequencies --    194.8177               232.0766               255.0443
 Red. masses --      2.8142                 3.2066                 9.4946
 Frc consts  --      0.0629                 0.1018                 0.3639
 IR Inten    --     84.4866                46.8786                 0.2456

                     13                     14                     15
                      A                      A                      A
 Frequencies --    275.5127               296.8711               305.6569
 Red. masses --      4.3758                 7.1898                 8.7482
 Frc consts  --      0.1957                 0.3733                 0.4815
 IR Inten    --     12.3175                 7.8112                 5.6299

                     16                     17                     18
                      A                      A                      A
 Frequencies --    359.2457               389.2637               408.5838
 Red. masses --      7.4295                 2.0640                 2.9241
 Frc consts  --      0.5649                 0.1843                 0.2876
 IR Inten    --      9.3347                58.1516                 0.0199

                     19                     20                     21
                      A                      A                      A
 Frequencies --    411.7192               413.3354               451.7309
 Red. masses --      3.3918                 5.6198                 3.2589
 Frc consts  --      0.3388                 0.5657                 0.3918
 IR Inten    --      1.3108                 6.9750                37.3966

                     22                     23                     24
                      A                      A                      A
 Frequencies --    473.9663               477.5765               486.1769
 Red. masses --      4.6313                 1.5675                 3.4335
 Frc consts  --      0.6130                 0.2106                 0.4782
 IR Inten    --      4.3076               202.6653                 8.2338

                     25                     26                     27
                      A                      A                      A
 Frequencies --    536.6130               573.0284               623.7229
 Red. masses --      9.6038                10.2489                 6.4480
 Frc consts  --      1.6294                 1.9828                 1.4780
 IR Inten    --    161.1039               416.3500                 0.0625

                     28                     29                     30
                      A                      A                      A
 Frequencies --    629.2906               652.3301               687.5363
 Red. masses --      6.4566                 6.3835                 6.5746
 Frc consts  --      1.5065                 1.6005                 1.8311
 IR Inten    --      0.3868                12.1609                22.8547

                     31                     32                     33
                      A                      A                      A
 Frequencies --    692.9234               699.3763               707.0184
 Red. masses --      2.5366                 1.9120                 3.4208
 Frc consts  --      0.7176                 0.5510                 1.0075
 IR Inten    --     41.0575                36.3225                23.5460

                     34                     35                     36
                      A                      A                      A
 Frequencies --    722.7968               763.0892               766.2116
 Red. masses --      6.6392                 3.0051                 1.7591
 Frc consts  --      2.0436                 1.0310                 0.6085
 IR Inten    --     55.2026               106.6766                 6.9034

                     37                     38                     39
                      A                      A                      A
 Frequencies --    789.7928               833.4922               846.7200
 Red. masses --      1.8407                 3.6625                 1.5771
 Frc consts  --      0.6765                 1.4991                 0.6662
 IR Inten    --     49.7353               234.9426               110.8915

                     40                     41                     42
                      A                      A                      A
 Frequencies --    858.6647               860.0802               949.7149
 Red. masses --      1.2572                 1.2563                 4.7294
 Frc consts  --      0.5461                 0.5475                 2.5133
 IR Inten    --      5.2423                 2.3035                35.3767

                     43                     44                     45
                      A                      A                      A
 Frequencies --    950.9937               953.9798               987.5066
 Red. masses --      1.4168                 1.4131                 1.3581
 Frc consts  --      0.7550                 0.7577                 0.7803
 IR Inten    --      2.7410                 3.0961                 0.0130

                     46                     47                     48
                      A                      A                      A
 Frequencies --    988.7202              1012.9394              1017.2683
 Red. masses --      1.3598                 6.4553                 6.0574
 Frc consts  --      0.7832                 3.9024                 3.6933
 IR Inten    --      0.0506                 7.7029                 4.7046

                     49                     50                     51
                      A                      A                      A
 Frequencies --   1020.4444              1023.3064              1037.9880
 Red. masses --      1.2904                 1.3036                 5.2118
 Frc consts  --      0.7917                 0.8043                 3.3084
 IR Inten    --      0.0064                 0.5012                19.4743

                     52                     53                     54
                      A                      A                      A
 Frequencies --   1045.4304              1051.3355              1067.7704
 Red. masses --      3.0271                 2.7396                 1.7989
 Frc consts  --      1.9492                 1.7841                 1.2084
 IR Inten    --      7.8031                10.6822                39.3139

                     55                     56                     57
                      A                      A                      A
 Frequencies --   1080.6528              1109.2928              1117.5767
 Red. masses --      3.1027                 1.5257                 1.6163
 Frc consts  --      2.1348                 1.1061                 1.1894
 IR Inten    --     91.5424                11.5479                25.0012

                     58                     59                     60
                      A                      A                      A
 Frequencies --   1136.9075              1159.2505              1195.4484
 Red. masses --      6.4620                 5.3065                 1.0990
 Frc consts  --      4.9212                 4.2016                 0.9253
 IR Inten    --    367.6828                37.7442                 0.4360

                     61                     62                     63
                      A                      A                      A
 Frequencies --   1196.5700              1203.7018              1214.3110
 Red. masses --      1.0928                 1.1726                 1.1386
 Frc consts  --      0.9218                 1.0010                 0.9892
 IR Inten    --      0.2098                 3.1381                26.0917

                     64                     65                     66
                      A                      A                      A
 Frequencies --   1236.4444              1266.9024              1321.8919
 Red. masses --      1.8370                 2.6828                 6.2174
 Frc consts  --      1.6547                 2.5370                 6.4010
 IR Inten    --     41.3268                 8.1308               156.0314

                     67                     68                     69
                      A                      A                      A
 Frequencies --   1341.4223              1349.5636              1365.0444
 Red. masses --      1.4458                 2.2978                 5.1566
 Frc consts  --      1.5328                 2.4658                 5.6612
 IR Inten    --      2.4691               148.1533                 9.0278

                     70                     71                     72
                      A                      A                      A
 Frequencies --   1373.8924              1378.1027              1426.6606
 Red. masses --      3.1049                 1.7637                 1.9071
 Frc consts  --      3.4531                 1.9735                 2.2870
 IR Inten    --     10.8388               104.3316               435.4450

                     73                     74                     75
                      A                      A                      A
 Frequencies --   1492.9278              1494.3708              1513.7426
 Red. masses --      2.2072                 2.3047                 3.0002
 Frc consts  --      2.8985                 3.0324                 4.0504
 IR Inten    --     44.3568                25.2466               639.3275

                     76                     77                     78
                      A                      A                      A
 Frequencies --   1518.5770              1539.5413              1603.4542
 Red. masses --      2.0514                 2.4079                 5.6285
 Frc consts  --      2.7873                 3.3626                 8.5263
 IR Inten    --      2.8517                45.3567                17.0670

                     79                     80                     81
                      A                      A                      A
 Frequencies --   1635.4340              1638.2921              1643.5040
 Red. masses --      5.1672                 5.4503                 5.8580
 Frc consts  --      8.1428                 8.6189                 9.3228
 IR Inten    --    781.3894                 9.1412                 2.2241

                     82                     83                     84
                      A                      A                      A
 Frequencies --   1646.2865              1661.6890              3215.2364
 Red. masses --      6.2445                 5.4769                 1.0864
 Frc consts  --      9.9715                 8.9101                 6.6171
 IR Inten    --    455.0562                50.0166                 0.1464

                     85                     86                     87
                      A                      A                      A
 Frequencies --   3220.1637              3222.6974              3229.6636
 Red. masses --      1.0870                 1.0886                 1.0920
 Frc consts  --      6.6413                 6.6610                 6.7112
 IR Inten    --      1.4063                 4.6373                26.1804

                     88                     89                     90
                      A                      A                      A
 Frequencies --   3230.2707              3237.3288              3237.5774
 Red. masses --      1.0902                 1.0951                 1.0946
 Frc consts  --      6.7023                 6.7620                 6.7598
 IR Inten    --     14.6466                26.9365                19.2611

                     91                     92                     93
                      A                      A                      A
 Frequencies --   3242.3662              3250.3469              3254.2906
 Red. masses --      1.0971                 1.0942                 1.0939
 Frc consts  --      6.7955                 6.8107                 6.8259
 IR Inten    --     15.2367                 6.1408                 4.1310

                     94                     95                     96
                      A                      A                      A
 Frequencies --   3357.8773              3498.8199              3552.7281
 Red. masses --      1.0984                 1.0779                 1.0872
 Frc consts  --      7.2970                 7.7745                 8.0854
 IR Inten    --     27.8192               278.6303               737.9789

 - Thermochemistry -
 -------------------
 Temperature   298.150 Kelvin.  Pressure   1.00000 Atm.
 Atom     1 has atomic number  8 and mass  15.99491

 Molecular mass:   301.06469 amu.
 Principal axes and moments of inertia in atomic units:
                           1         2         3
     Eigenvalues --  3247.56436********************
           X            0.98934  -0.13661  -0.05042
           Y           -0.03734  -0.57266   0.81894
           Z            0.14075   0.80833   0.57166
 This molecule is an asymmetric top.
 Rotational symmetry number  1.
 Warning -- assumption of classical behavior for rotation
           may cause significant error
 Rotational temperatures (Kelvin)      0.02667     0.00674     0.00629
 Rotational constants (GHZ):           0.55572     0.14041     0.13101
 Zero-point vibrational energy     682621.2 (Joules/Mol)
                                  163.15038 (Kcal/Mol)
 Warning -- explicit consideration of  26 degrees of freedom as
           vibrations may cause significant error
 Vibrational temperatures:     20.78    33.77    54.66    64.05   100.98
          (Kelvin)            134.93   177.08   224.17   244.01   280.30
                              333.91   366.95   396.40   427.13   439.77
                              516.87   560.06   587.86   592.37   594.70
                              649.94   681.93   687.13   699.50   772.07
                              824.46   897.40   905.41   938.56   989.21
                              996.96  1006.25  1017.24  1039.94  1097.92
                             1102.41  1136.34  1199.21  1218.24  1235.43
                             1237.46  1366.43  1368.27  1372.56  1420.80
                             1422.55  1457.39  1463.62  1468.19  1472.31
                             1493.43  1504.14  1512.64  1536.28  1554.82
                             1596.02  1607.94  1635.76  1667.90  1719.98
                             1721.60  1731.86  1747.12  1778.97  1822.79
                             1901.91  1930.01  1941.72  1963.99  1976.72
                             1982.78  2052.65  2147.99  2150.07  2177.94
                             2184.89  2215.06  2307.01  2353.02  2357.14
                             2364.64  2368.64  2390.80  4626.01  4633.10
                             4636.74  4646.77  4647.64  4657.79  4658.15
                             4665.04  4676.52  4682.20  4831.24  5034.02
                             5111.58

 Zero-point correction=                           0.259997 (Hartree/Particle)
 Thermal correction to Energy=                    0.277871
 Thermal correction to Enthalpy=                  0.278815
 Thermal correction to Gibbs Free Energy=         0.211072
 Sum of electronic and zero-point Energies=          -1312.271885
 Sum of electronic and thermal Energies=             -1312.254012
 Sum of electronic and thermal Enthalpies=           -1312.253067
 Sum of electronic and thermal Free Energies=        -1312.320810

                     E (Thermal)             CV                S
                      KCal/Mol        Cal/Mol-Kelvin    Cal/Mol-Kelvin
 Total                  174.366             69.013            142.576
 Electronic               0.000              0.000              0.000
 Translational            0.889              2.981             43.003
 Rotational               0.889              2.981             34.707
 Vibrational            172.589             63.052             64.866
 Vibration     1          0.593              1.986              7.280
 Vibration     2          0.593              1.985              6.317
 Vibration     3          0.594              1.982              5.361
 Vibration     4          0.595              1.980              5.047
 Vibration     5          0.598              1.968              4.148
 Vibration     6          0.603              1.954              3.580
 Vibration     7          0.610              1.930              3.051
 Vibration     8          0.620              1.896              2.600
 Vibration     9          0.625              1.880              2.440
 Vibration    10          0.635              1.847              2.181
 Vibration    11          0.653              1.792              1.863
 Vibration    12          0.665              1.754              1.695
 Vibration    13          0.677              1.719              1.561
 Vibration    14          0.691              1.680              1.434
 Vibration    15          0.696              1.663              1.386
 Vibration    16          0.734              1.556              1.125
 Vibration    17          0.757              1.493              1.003
 Vibration    18          0.773              1.452              0.932
 Vibration    19          0.776              1.445              0.921
 Vibration    20          0.777              1.441              0.915
 Vibration    21          0.810              1.357              0.791
 Vibration    22          0.831              1.308              0.727
 Vibration    23          0.834              1.300              0.717
 Vibration    24          0.842              1.281              0.694
 Vibration    25          0.892              1.169              0.573
 Vibration    26          0.929              1.090              0.498

                           ! Non-Optimized Parameters !
 Normal termination of Gaussian 16 at Thu Sep 24 06:49:20 2020.

 ----------------------------------------------------------------------
 #p b3lyp/6-31G(d) scrf=(iefpcm,read,solvent=water) geom=allcheck guess
 =read
 ----------------------------------------------------------------------

 Structure from the checkpoint file:  "SM42_m2.b.5.pdb.xyz.mst.b.w.chk"
 -------------------
 SM42_m2.b.5.pdb.xyz
 -------------------
 Charge =  1 Multiplicity = 1

 SCF Done:  E(RB3LYP) =  -1312.53187317     A.U. after    6 cycles
 Normal termination of Gaussian 16 at Thu Sep 24 06:50:00 2020.

 -----------------------------
 #p B3LYP/6-31G* geom=allcheck
 -----------------------------

 Structure from the checkpoint file:  "SM42_m2.b.5.pdb.xyz.mst.b.w.chk"
 -------------------
 SM42_m2.b.5.pdb.xyz
 -------------------
 Charge =  1 Multiplicity = 1

 SCF Done:  E(RB3LYP) =  -1312.43228695     A.U. after   16 cycles
 Normal termination of Gaussian 16 at Thu Sep 24 06:50:58 2020.
 Gaussian 16:  ES64L-G16RevB.01 20-Dec-2017

 ----------------------------------------------------------------------
 #p mp2/aug-cc-pVDZ scf=(MaxCycle=2000,NoVarAcc,NoIncFock) maxdisk=120G
 B geom=allcheck
 ----------------------------------------------------------------------

 Structure from the checkpoint file:  "SM42_m2.b.5.pdb.xyz.mst.b.w.chk"
 -------------------
 SM42_m2.b.5.pdb.xyz
 -------------------
 Charge =  1 Multiplicity = 1

                         Standard orientation:
 ---------------------------------------------------------------------
 Center     Atomic      Atomic             Coordinates (Angstroms)
 Number     Number       Type             X           Y           Z
 ---------------------------------------------------------------------
      1          8           0        1.495747   -0.784581    2.036097
      2         16           0        2.334515   -1.101200    0.881403
      3          7           0        1.268329   -1.747404   -0.302064
      4          6           0       -0.005792   -1.322700   -0.505941
      5          7           0       -0.639963   -1.567102   -1.653851
      6          8           0       -1.933430   -1.123144   -1.592732
      7          6           0       -2.074703   -0.532529   -0.377234
      8          6           0       -3.370513    0.051897   -0.083714
      9          6           0       -3.588882    0.664380    1.161690
     10          6           0       -4.829007    1.223495    1.449903
     11          6           0       -5.856341    1.177341    0.503193
     12          6           0       -5.641846    0.569233   -0.736501
     13          6           0       -4.404835    0.006831   -1.033716
     14          6           0       -0.905938   -0.631677    0.336194
     15          6           0        2.979883    0.402455    0.190501
     16          6           0        2.376480    1.613378    0.535286
     17          6           0        2.883446    2.788333   -0.017448
     18          6           0        3.968929    2.737489   -0.895331
     19          6           0        4.561106    1.515152   -1.224957
     20          6           0        4.069097    0.330603   -0.681904
     21          8           0        3.395128   -2.101885    0.954173
     22          1           0        1.745895   -2.202159   -1.083892
     23          1           0       -2.794054    0.701053    1.897554
     24          1           0       -4.994425    1.694892    2.412074
     25          1           0       -6.822208    1.614726    0.731412
     26          1           0       -6.438198    0.533479   -1.471246
     27          1           0       -4.234045   -0.465203   -1.993842
     28          1           0       -0.697758   -0.284213    1.331620
     29          1           0        1.544504    1.629835    1.227460
     30          1           0        2.433735    3.739923    0.241585
     31          1           0        4.359064    3.655260   -1.321108
     32          1           0        5.408205    1.483729   -1.900448
     33          1           0        4.522646   -0.624209   -0.916883
     34          1           0       -0.410243   -2.141574   -2.465778
 ---------------------------------------------------------------------

 SCF Done:  E(RHF) =  -1306.36411805     A.U. after   18 cycles
 E2 =    -0.3086689261D+01 EUMP2 =    -0.13094508073091D+04

 The electronic state is 1-A.
 Alpha  occ. eigenvalues --  -92.37257 -20.85176 -20.69964 -20.69439 -15.86212
 Alpha  occ. eigenvalues --  -15.79807 -11.55999 -11.52111 -11.40804 -11.40791
 Alpha  occ. eigenvalues --  -11.39654 -11.38804 -11.38726 -11.38714 -11.38531
 Alpha  occ. eigenvalues --  -11.37704 -11.37637 -11.36984 -11.36932 -11.36688
 Alpha  occ. eigenvalues --  -11.36646  -9.33958  -7.02490  -7.02469  -7.02306
 Alpha  occ. eigenvalues --   -1.71190  -1.60213  -1.48040  -1.46573  -1.36021
 Alpha  occ. eigenvalues --   -1.30325  -1.29611  -1.26705  -1.17662  -1.17027
 Alpha  occ. eigenvalues --   -1.15500  -1.15275  -1.07508  -1.04313  -1.02631
 Alpha  occ. eigenvalues --   -0.98397  -0.96612  -0.96207  -0.94919  -0.92930
 Alpha  occ. eigenvalues --   -0.88113  -0.87702  -0.85784  -0.84981  -0.83881
 Alpha  occ. eigenvalues --   -0.79964  -0.79863  -0.78460  -0.77947  -0.76870
 Alpha  occ. eigenvalues --   -0.75072  -0.74996  -0.74644  -0.72537  -0.72486
 Alpha  occ. eigenvalues --   -0.72153  -0.71832  -0.65707  -0.65413  -0.64572
 Alpha  occ. eigenvalues --   -0.63990  -0.63821  -0.63360  -0.62979  -0.62557
 Alpha  occ. eigenvalues --   -0.60734  -0.60010  -0.59102  -0.55708  -0.47932
 Alpha  occ. eigenvalues --   -0.46874  -0.46670  -0.46085
 Alpha virt. eigenvalues --   -0.09435  -0.07888  -0.05340  -0.04839  -0.04363
 Alpha virt. eigenvalues --   -0.03949  -0.03438  -0.03000  -0.02559  -0.02395
 Alpha virt. eigenvalues --   -0.01946  -0.01453  -0.01273  -0.01037  -0.00817

 Mulliken charges:
               1
     1  O   -1.211856
     2  S    2.945212
     3  N   -0.809097
     4  C   -0.175777
     5  N   -0.034863
     6  O   -1.051561
     7  C   -0.272485
     8  C    1.643880
     9  C    0.573406
    10  C    0.143726
    11  C    0.528717
    12  C    0.266889
    13  C    0.283605
    14  C    2.414796
    15  C    0.921641
    16  C    0.222687
    17  C    0.490591
    18  C    0.465166
    19  C    0.650946
    20  C   -0.199485
    21  O   -1.089302
    22  H   -0.090264
    23  H   -0.567398
    24  H   -0.470831
    25  H   -0.411946
    26  H   -0.427379
    27  H   -0.669791
    28  H   -0.674271
    29  H   -0.567662
    30  H   -0.446056
    31  H   -0.415559
    32  H   -0.427053
    33  H   -0.555812
    34  H    0.017186
 Sum of Mulliken charges =   1.00000

 Dipole moment (field-independent basis, Debye):
    X=             -3.9087    Y=              1.2523    Z=             -6.3728  Tot=              7.5801
 Quadrupole moment (field-independent basis, Debye-Ang):
   XX=            -63.7013   YY=           -109.7059   ZZ=           -115.0615
   XY=              6.4828   XZ=            -16.0408   YZ=             16.9763

 Normal termination of Gaussian 16 at Thu Sep 24 08:09:40 2020.
