 Gaussian 16, Revision B.01,

 ----------------------------------------------------------------------
 #p b3lyp/6-31G(d) opt freq NoSymm scf=(MaxCycle=2000,NoVarAcc,NoIncFoc
 k) scrf=(iefpcm,read,solvent=water)
 ----------------------------------------------------------------------

 -------------------
 SM42_m0.n.4.pdb.xyz
 -------------------
 Symbolic Z-matrix:
 Charge =  0 Multiplicity = 1

 SCF Done:  E(RB3LYP) =  -1312.09136070     A.U. after   13 cycles
 SCF Done:  E(RB3LYP) =  -1312.09139848     A.U. after    9 cycles
 SCF Done:  E(RB3LYP) =  -1312.09140411     A.U. after    8 cycles
 SCF Done:  E(RB3LYP) =  -1312.09140690     A.U. after    8 cycles
 SCF Done:  E(RB3LYP) =  -1312.09140733     A.U. after    8 cycles
 SCF Done:  E(RB3LYP) =  -1312.09140672     A.U. after    8 cycles
 SCF Done:  E(RB3LYP) =  -1312.09140660     A.U. after    8 cycles
 SCF Done:  E(RB3LYP) =  -1312.09140736     A.U. after    8 cycles
 SCF Done:  E(RB3LYP) =  -1312.09140705     A.U. after    9 cycles
 SCF Done:  E(RB3LYP) =  -1312.09140685     A.U. after    8 cycles
 SCF Done:  E(RB3LYP) =  -1312.09140636     A.U. after    9 cycles
 SCF Done:  E(RB3LYP) =  -1312.09140590     A.U. after    7 cycles
 SCF Done:  E(RB3LYP) =  -1312.09140732     A.U. after    9 cycles
 SCF Done:  E(RB3LYP) =  -1312.09140562     A.U. after    9 cycles
 SCF Done:  E(RB3LYP) =  -1312.09140752     A.U. after    9 cycles
 SCF Done:  E(RB3LYP) =  -1312.09140553     A.U. after    9 cycles
 Optimization completed.
    -- Stationary point found.
 Normal termination of Gaussian 16 at Tue Sep 22 20:23:23 2020.

 --------------------------------------------------------------------
 #P Geom=AllCheck Guess=TCheck SCRF=Check GenChk RB3LYP/6-31G(d) Freq
 --------------------------------------------------------------------

 Structure from the checkpoint file:  "SM42_m0.n.4.pdb.xyz.mst.n.w.chk"
 -------------------
 SM42_m0.n.4.pdb.xyz
 -------------------
 Charge =  0 Multiplicity = 1

 SCF Done:  E(RB3LYP) =  -1312.09140553     A.U. after    1 cycles

  Exact polarizability: 315.997 -28.214 220.970  12.432 -38.531 251.620
 Approx polarizability: 330.954 -36.370 257.125  17.622 -52.684 323.909

                      1                      2                      3
                      A                      A                      A
 Frequencies --     12.1521                24.7053                37.3253
 Red. masses --      6.4860                 4.1765                 4.0092
 Frc consts  --      0.0006                 0.0015                 0.0033
 IR Inten    --      1.8764                 1.3559                 0.5956

                      4                      5                      6
                      A                      A                      A
 Frequencies --     57.7013                72.3045                80.7442
 Red. masses --      6.6607                 6.8579                 4.9519
 Frc consts  --      0.0131                 0.0211                 0.0190
 IR Inten    --      2.0103                 3.7870                 6.1169

                      7                      8                      9
                      A                      A                      A
 Frequencies --    118.5093               137.2273               171.5419
 Red. masses --      5.9274                 7.4276                 6.3914
 Frc consts  --      0.0490                 0.0824                 0.1108
 IR Inten    --      2.7620                 0.9523                 2.5917

                     10                     11                     12
                      A                      A                      A
 Frequencies --    216.6270               242.1899               270.2145
 Red. masses --      5.1421                 8.0711                 6.2055
 Frc consts  --      0.1422                 0.2789                 0.2670
 IR Inten    --      0.1689                 1.8190                 4.4339

                     13                     14                     15
                      A                      A                      A
 Frequencies --    294.5325               305.8988               372.6857
 Red. masses --      8.5020                 8.5652                 8.0857
 Frc consts  --      0.4345                 0.4722                 0.6617
 IR Inten    --      1.9978                 5.9105                 3.0938

                     16                     17                     18
                      A                      A                      A
 Frequencies --    384.4116               411.6596               414.0508
 Red. masses --      7.6041                 2.9671                 2.9977
 Frc consts  --      0.6620                 0.2962                 0.3028
 IR Inten    --      1.5031                 0.0246                 0.0768

                     19                     20                     21
                      A                      A                      A
 Frequencies --    419.5669               444.0557               481.2336
 Red. masses --      8.0680                 5.8084                 4.0008
 Frc consts  --      0.8368                 0.6748                 0.5459
 IR Inten    --     10.4595                15.3803                30.7266

                     22                     23                     24
                      A                      A                      A
 Frequencies --    494.7395               504.5071               542.8367
 Red. masses --      2.4388                 1.6609                10.5220
 Frc consts  --      0.3517                 0.2491                 1.8268
 IR Inten    --     39.0699               132.9999               170.3543

                     25                     26                     27
                      A                      A                      A
 Frequencies --    576.6978               624.5911               630.8307
 Red. masses --      8.4454                 6.4401                 6.4474
 Frc consts  --      1.6549                 1.4802                 1.5117
 IR Inten    --    306.0741                 0.1528                 0.0629

                     28                     29                     30
                      A                      A                      A
 Frequencies --    660.6947               693.1950               695.7305
 Red. masses --      8.1790                 5.4325                 2.6513
 Frc consts  --      2.1036                 1.5380                 0.7561
 IR Inten    --      1.1911                 8.9924                63.1407

                     31                     32                     33
                      A                      A                      A
 Frequencies --    704.8439               708.0380               717.1272
 Red. masses --      1.7329                 3.7513                 6.4768
 Frc consts  --      0.5072                 1.1080                 1.9625
 IR Inten    --     41.0353                 8.6153                49.1678

                     34                     35                     36
                      A                      A                      A
 Frequencies --    764.5011               778.1468               785.3717
 Red. masses --      1.4887                 1.5269                 5.1464
 Frc consts  --      0.5126                 0.5447                 1.8703
 IR Inten    --     22.5108               113.3126                67.7321

                     37                     38                     39
                      A                      A                      A
 Frequencies --    806.7037               843.0302               856.9510
 Red. masses --      1.9137                 5.7929                 1.2510
 Frc consts  --      0.7338                 2.4257                 0.5413
 IR Inten    --     12.0627               218.2414                 0.5373

                     40                     41                     42
                      A                      A                      A
 Frequencies --    862.7795               945.1128               947.1680
 Red. masses --      1.2528                 1.3885                 1.3122
 Frc consts  --      0.5495                 0.7308                 0.6936
 IR Inten    --      0.0240                 2.7819                 0.2396

                     43                     44                     45
                      A                      A                      A
 Frequencies --    960.1928               967.1924               983.7318
 Red. masses --      9.0866                 9.8153                 1.3522
 Frc consts  --      4.9359                 5.4098                 0.7710
 IR Inten    --     17.5552                36.6093                 0.0313

                     46                     47                     48
                      A                      A                      A
 Frequencies --    987.0434              1013.0135              1013.4798
 Red. masses --      1.3569                 1.2689                 6.4667
 Frc consts  --      0.7789                 0.7672                 3.9135
 IR Inten    --      0.0739                 0.0657                 8.1391

                     49                     50                     51
                      A                      A                      A
 Frequencies --   1017.0052              1020.5983              1046.1329
 Red. masses --      6.0925                 1.2900                 3.0481
 Frc consts  --      3.7127                 0.7917                 1.9654
 IR Inten    --      1.0995                 0.0960                15.9335

                     52                     53                     54
                      A                      A                      A
 Frequencies --   1047.7873              1068.0670              1081.2317
 Red. masses --      2.4252                 3.0640                 3.0931
 Frc consts  --      1.5687                 2.0594                 2.1305
 IR Inten    --      5.8588                54.0852               120.1891

                     55                     56                     57
                      A                      A                      A
 Frequencies --   1092.1483              1108.1416              1109.5817
 Red. masses --      3.1193                 1.5277                 1.5625
 Frc consts  --      2.1921                 1.1053                 1.1334
 IR Inten    --      5.6629                11.0918                11.7988

                     58                     59                     60
                      A                      A                      A
 Frequencies --   1133.1430              1190.8924              1191.1648
 Red. masses --      6.6033                 1.1034                 1.0970
 Frc consts  --      4.9955                 0.9220                 0.9171
 IR Inten    --    382.3835                 0.8033                 0.2669

                     61                     62                     63
                      A                      A                      A
 Frequencies --   1201.1596              1202.7790              1221.2377
 Red. masses --      1.2039                 1.1644                 1.7472
 Frc consts  --      1.0234                 0.9925                 1.5353
 IR Inten    --     21.1769                 0.2738                31.8604

                     64                     65                     66
                      A                      A                      A
 Frequencies --   1291.9938              1302.6352              1341.1103
 Red. masses --      5.0029                 7.3785                 1.5358
 Frc consts  --      4.9203                 7.3767                 1.6275
 IR Inten    --     87.9324               177.4825                 0.4593

                     67                     68                     69
                      A                      A                      A
 Frequencies --   1345.2628              1363.0225              1367.7911
 Red. masses --      2.4128                 5.3015                 2.2819
 Frc consts  --      2.5727                 5.8030                 2.5153
 IR Inten    --     20.2742                 4.9372                 1.9359

                     70                     71                     72
                      A                      A                      A
 Frequencies --   1393.2938              1491.2701              1493.5875
 Red. masses --      1.9671                 2.2924                 2.2868
 Frc consts  --      2.2499                 3.0037                 3.0056
 IR Inten    --     44.2612                21.0609                56.4942

                     73                     74                     75
                      A                      A                      A
 Frequencies --   1515.2597              1520.3171              1520.8826
 Red. masses --      3.5451                 2.0730                 2.6772
 Frc consts  --      4.7957                 2.8231                 3.6486
 IR Inten    --    578.7731                23.8838               149.1510

                     76                     77                     78
                      A                      A                      A
 Frequencies --   1556.2042              1629.8987              1640.3652
 Red. masses --      3.6053                 5.4698                 5.5916
 Frc consts  --      5.1443                 8.5613                 8.8648
 IR Inten    --     27.1062               102.3636                 5.0233

                     79                     80                     81
                      A                      A                      A
 Frequencies --   1642.8415              1653.6179              1666.5435
 Red. masses --      5.7302                 6.4161                 6.1456
 Frc consts  --      9.1120                10.3369                10.0565
 IR Inten    --      1.3304               106.3017                78.7490

                     82                     83                     84
                      A                      A                      A
 Frequencies --   3208.4618              3215.3781              3216.4166
 Red. masses --      1.0858                 1.0884                 1.0870
 Frc consts  --      6.5858                 6.6301                 6.6254
 IR Inten    --      1.3686                 5.5290                 1.7924

                     85                     86                     87
                      A                      A                      A
 Frequencies --   3223.1240              3227.7498              3231.0949
 Red. masses --      1.0924                 1.0903                 1.0956
 Frc consts  --      6.6865                 6.6926                 6.7390
 IR Inten    --     38.3184                18.8548                38.8635

                     88                     89                     90
                      A                      A                      A
 Frequencies --   3235.6428              3238.3470              3247.9135
 Red. masses --      1.0946                 1.0954                 1.0939
 Frc consts  --      6.7519                 6.7682                 6.7989
 IR Inten    --     24.5882                13.3490                 7.2021

                     91                     92                     93
                      A                      A                      A
 Frequencies --   3260.5044              3319.3540              3534.0918
 Red. masses --      1.0929                 1.0991                 1.0778
 Frc consts  --      6.8457                 7.1348                 7.9309
 IR Inten    --      2.8597                 1.6724               217.5495

 - Thermochemistry -
 -------------------
 Temperature   298.150 Kelvin.  Pressure   1.00000 Atm.
 Atom     1 has atomic number  8 and mass  15.99491

 Molecular mass:   300.05686 amu.
 Principal axes and moments of inertia in atomic units:
                           1         2         3
     Eigenvalues --  3103.02656********************
           X            1.00000  -0.00014  -0.00254
           Y            0.00014   1.00000   0.00020
           Z            0.00254  -0.00020   1.00000
 This molecule is an asymmetric top.
 Rotational symmetry number  1.
 Warning -- assumption of classical behavior for rotation
           may cause significant error
 Rotational temperatures (Kelvin)      0.02791     0.00654     0.00600
 Rotational constants (GHZ):           0.58161     0.13624     0.12502
 Zero-point vibrational energy     649946.9 (Joules/Mol)
                                  155.34104 (Kcal/Mol)
 Warning -- explicit consideration of  25 degrees of freedom as
           vibrations may cause significant error
 Vibrational temperatures:     17.48    35.55    53.70    83.02   104.03
          (Kelvin)            116.17   170.51   197.44   246.81   311.68
                              348.46   388.78   423.77   440.12   536.21
                              553.08   592.29   595.73   603.66   638.90
                              692.39   711.82   725.87   781.02   829.74
                              898.65   907.62   950.59   997.35  1001.00
                             1014.11  1018.71  1031.79  1099.95  1119.58
                             1129.97  1160.67  1212.93  1232.96  1241.35
                             1359.81  1362.76  1381.50  1391.57  1415.37
                             1420.14  1457.50  1458.17  1463.24  1468.41
                             1505.15  1507.53  1536.71  1555.65  1571.36
                             1594.37  1596.44  1630.34  1713.43  1713.82
                             1728.20  1730.53  1757.09  1858.89  1874.20
                             1929.56  1935.53  1961.09  1967.95  2004.64
                             2145.61  2148.94  2180.12  2187.40  2188.21
                             2239.03  2345.06  2360.12  2363.68  2379.19
                             2397.78  4616.26  4626.21  4627.71  4637.36
                             4644.01  4648.82  4655.37  4659.26  4673.02
                             4691.14  4775.81  5084.77

 Zero-point correction=                           0.247552 (Hartree/Particle)
 Thermal correction to Energy=                    0.264902
 Thermal correction to Enthalpy=                  0.265846
 Thermal correction to Gibbs Free Energy=         0.198942
 Sum of electronic and zero-point Energies=          -1311.843854
 Sum of electronic and thermal Energies=             -1311.826503
 Sum of electronic and thermal Enthalpies=           -1311.825559
 Sum of electronic and thermal Free Energies=        -1311.892464

                     E (Thermal)             CV                S
                      KCal/Mol        Cal/Mol-Kelvin    Cal/Mol-Kelvin
 Total                  166.229             67.196            140.813
 Electronic               0.000              0.000              0.000
 Translational            0.889              2.981             42.993
 Rotational               0.889              2.981             34.738
 Vibrational            164.451             61.235             63.081
 Vibration     1          0.593              1.987              7.624
 Vibration     2          0.593              1.985              6.215
 Vibration     3          0.594              1.982              5.396
 Vibration     4          0.596              1.974              4.534
 Vibration     5          0.598              1.967              4.090
 Vibration     6          0.600              1.962              3.873
 Vibration     7          0.609              1.934              3.125
 Vibration     8          0.614              1.916              2.842
 Vibration     9          0.626              1.878              2.419
 Vibration    10          0.645              1.816              1.987
 Vibration    11          0.658              1.776              1.787
 Vibration    12          0.674              1.728              1.595
 Vibration    13          0.689              1.684              1.448
 Vibration    14          0.696              1.663              1.384
 Vibration    15          0.744              1.528              1.069
 Vibration    16          0.753              1.503              1.022
 Vibration    17          0.776              1.445              0.921
 Vibration    18          0.778              1.440              0.912
 Vibration    19          0.782              1.428              0.893
 Vibration    20          0.804              1.374              0.814
 Vibration    21          0.838              1.292              0.707
 Vibration    22          0.850              1.262              0.671
 Vibration    23          0.860              1.240              0.647
 Vibration    24          0.898              1.155              0.559
 Vibration    25          0.933              1.082              0.492

 Optimization completed.
    -- Stationary point found.
 Normal termination of Gaussian 16 at Tue Sep 22 20:34:14 2020.

 ----------------------------------------------------------------------
 #p b3lyp/6-31G(d) scrf=(iefpcm,read,solvent=water) geom=allcheck guess
 =read
 ----------------------------------------------------------------------

 Structure from the checkpoint file:  "SM42_m0.n.4.pdb.xyz.mst.n.w.chk"
 -------------------
 SM42_m0.n.4.pdb.xyz
 -------------------
 Charge =  0 Multiplicity = 1

 SCF Done:  E(RB3LYP) =  -1312.09140719     A.U. after    6 cycles
 Normal termination of Gaussian 16 at Tue Sep 22 20:34:49 2020.

 -----------------------------
 #p B3LYP/6-31G* geom=allcheck
 -----------------------------

 Structure from the checkpoint file:  "SM42_m0.n.4.pdb.xyz.mst.n.w.chk"
 -------------------
 SM42_m0.n.4.pdb.xyz
 -------------------
 Charge =  0 Multiplicity = 1

 SCF Done:  E(RB3LYP) =  -1312.06571840     A.U. after   15 cycles
 Normal termination of Gaussian 16 at Tue Sep 22 20:35:36 2020.
 Gaussian 16:  ES64L-G16RevB.01 20-Dec-2017

 ----------------------------------------------------------------------
 #p mp2/aug-cc-pVDZ scf=(MaxCycle=2000,NoVarAcc,NoIncFock) maxdisk=120G
 B geom=allcheck
 ----------------------------------------------------------------------

 Structure from the checkpoint file:  "SM42_m0.n.4.pdb.xyz.mst.n.w.chk"
 -------------------
 SM42_m0.n.4.pdb.xyz
 -------------------
 Charge =  0 Multiplicity = 1

                         Standard orientation:
 ---------------------------------------------------------------------
 Center     Atomic      Atomic             Coordinates (Angstroms)
 Number     Number       Type             X           Y           Z
 ---------------------------------------------------------------------
      1          8           0        3.559671   -2.161273    0.699054
      2         16           0        2.676219   -1.383625   -0.176067
      3          7           0        1.136470   -1.689864    0.456136
      4          6           0       -0.038507   -1.087013    0.014099
      5          7           0       -0.147192   -0.519432   -1.172966
      6          8           0       -1.478615   -0.070680   -1.227531
      7          6           0       -2.116963   -0.392474   -0.076777
      8          6           0       -3.518857   -0.007047    0.047355
      9          6           0       -4.246207   -0.360612    1.196186
     10          6           0       -5.582833    0.007912    1.318788
     11          6           0       -6.209260    0.730461    0.299475
     12          6           0       -5.491044    1.083302   -0.845286
     13          6           0       -4.153323    0.718498   -0.973809
     14          6           0       -1.249071   -1.040757    0.756073
     15          6           0        3.020480    0.352578    0.054992
     16          6           0        2.797710    1.240817   -0.998829
     17          6           0        3.068043    2.594357   -0.800891
     18          6           0        3.551072    3.040375    0.431171
     19          6           0        3.771465    2.136626    1.474714
     20          6           0        3.506517    0.781167    1.293379
     21          8           0        2.624709   -1.659324   -1.613657
     22          1           0        1.167307   -1.904732    1.452194
     23          1           0       -3.765570   -0.924277    1.988215
     24          1           0       -6.136265   -0.269861    2.209303
     25          1           0       -7.251210    1.015969    0.397296
     26          1           0       -5.972632    1.643872   -1.639126
     27          1           0       -3.593644    0.992130   -1.860249
     28          1           0       -1.427700   -1.426805    1.745827
     29          1           0        2.431083    0.874741   -1.948600
     30          1           0        2.904526    3.296768   -1.610280
     31          1           0        3.760935    4.094210    0.578130
     32          1           0        4.154023    2.485323    2.427217
     33          1           0        3.683238    0.066818    2.088170
 ---------------------------------------------------------------------

 SCF Done:  E(RHF) =  -1305.99329476     A.U. after   18 cycles
 E2 =    -0.3108754341D+01 EUMP2 =    -0.13091020490998D+04

 The electronic state is 1-A.
 Alpha  occ. eigenvalues --  -92.23541 -20.65603 -20.56325 -20.55784 -15.63807
 Alpha  occ. eigenvalues --  -15.62341 -11.34674 -11.34501 -11.29037 -11.27769
 Alpha  occ. eigenvalues --  -11.27741 -11.27288 -11.27216 -11.27026 -11.26608
 Alpha  occ. eigenvalues --  -11.26547 -11.26514 -11.26287 -11.26266 -11.26090
 Alpha  occ. eigenvalues --  -11.25589  -9.20246  -6.88785  -6.88755  -6.88633
 Alpha  occ. eigenvalues --   -1.49610  -1.46325  -1.34143  -1.28265  -1.18610
 Alpha  occ. eigenvalues --   -1.18478  -1.14590  -1.10165  -1.06106  -1.04554
 Alpha  occ. eigenvalues --   -1.04028  -1.03288  -0.93140  -0.88638  -0.86374
 Alpha  occ. eigenvalues --   -0.85647  -0.84412  -0.81877  -0.79175  -0.75682
 Alpha  occ. eigenvalues --   -0.74682  -0.71624  -0.69954  -0.67998  -0.67305
 Alpha  occ. eigenvalues --   -0.66534  -0.65974  -0.65251  -0.64066  -0.63601
 Alpha  occ. eigenvalues --   -0.62176  -0.61566  -0.61350  -0.60566  -0.57035
 Alpha  occ. eigenvalues --   -0.56049  -0.54535  -0.53257  -0.52891  -0.52351
 Alpha  occ. eigenvalues --   -0.52243  -0.51462  -0.50878  -0.49721  -0.48409
 Alpha  occ. eigenvalues --   -0.46631  -0.46094  -0.41324  -0.39360  -0.36702
 Alpha  occ. eigenvalues --   -0.35973  -0.35785  -0.32617
 Alpha virt. eigenvalues --    0.02339   0.02914   0.03152   0.03991   0.04030
 Alpha virt. eigenvalues --    0.05040   0.05141   0.05327   0.06527   0.06711
 Alpha virt. eigenvalues --    0.07186   0.07615   0.07746   0.08744   0.09105

 Mulliken charges:
               1
     1  O   -1.124070
     2  S    3.057255
     3  N   -0.956139
     4  C   -0.148430
     5  N   -0.182062
     6  O   -1.082877
     7  C    0.157163
     8  C    1.389607
     9  C    0.633927
    10  C    0.026758
    11  C    0.556689
    12  C    0.184219
    13  C    0.441833
    14  C    1.639939
    15  C    0.768200
    16  C    0.124160
    17  C    0.575690
    18  C    0.428879
    19  C    0.586329
    20  C   -0.107733
    21  O   -1.182489
    22  H   -0.085076
    23  H   -0.591418
    24  H   -0.481134
    25  H   -0.433013
    26  H   -0.441432
    27  H   -0.652919
    28  H   -0.589904
    29  H   -0.571288
    30  H   -0.459521
    31  H   -0.437662
    32  H   -0.454539
    33  H   -0.588942
 Sum of Mulliken charges =  -0.00000

 Dipole moment (field-independent basis, Debye):
    X=             -4.6477    Y=              4.8292    Z=              4.9428  Tot=              8.3279
 Quadrupole moment (field-independent basis, Debye-Ang):
   XX=           -119.2632   YY=           -130.3694   ZZ=           -124.4937
   XY=             17.6008   XZ=              3.6033   YZ=            -10.2881

 Normal termination of Gaussian 16 at Tue Sep 22 21:15:15 2020.
