 Gaussian 16, Revision B.01,

 ----------------------------------------------------------------------
 #p b3lyp/6-31G(d) opt freq NoSymm scf=(MaxCycle=2000,NoVarAcc,NoIncFoc
 k) scrf=(iefpcm,read,solvent=water)
 ----------------------------------------------------------------------

 -------------------
 SM42_m1.a.4.pdb.xyz
 -------------------
 Symbolic Z-matrix:
 Charge = -1 Multiplicity = 1

 SCF Done:  E(RB3LYP) =  -1311.62314636     A.U. after   13 cycles
 SCF Done:  E(RB3LYP) =  -1311.62307707     A.U. after   10 cycles
 SCF Done:  E(RB3LYP) =  -1311.62307324     A.U. after    9 cycles
 SCF Done:  E(RB3LYP) =  -1311.62314423     A.U. after   10 cycles
 SCF Done:  E(RB3LYP) =  -1311.62314761     A.U. after    8 cycles
 SCF Done:  E(RB3LYP) =  -1311.62307461     A.U. after   10 cycles
 SCF Done:  E(RB3LYP) =  -1311.62307643     A.U. after    8 cycles
 SCF Done:  E(RB3LYP) =  -1311.62314307     A.U. after   10 cycles
 SCF Done:  E(RB3LYP) =  -1311.62314735     A.U. after    9 cycles
 SCF Done:  E(RB3LYP) =  -1311.62314760     A.U. after    8 cycles
 SCF Done:  E(RB3LYP) =  -1311.62313856     A.U. after    3 cycles
 SCF Done:  E(RB3LYP) =  -1311.62313856     A.U. after    2 cycles
 SCF Done:  E(RB3LYP) =  -1311.62307970     A.U. after   10 cycles
 SCF Done:  E(RB3LYP) =  -1311.62313851     A.U. after   10 cycles
 SCF Done:  E(RB3LYP) =  -1311.62313849     A.U. after    3 cycles
 SCF Done:  E(RB3LYP) =  -1311.62307976     A.U. after   10 cycles
 Optimization completed on the basis of negligible forces.
    -- Stationary point found.
 Normal termination of Gaussian 16 at Thu Sep 24 07:07:00 2020.

 --------------------------------------------------------------------
 #P Geom=AllCheck Guess=TCheck SCRF=Check GenChk RB3LYP/6-31G(d) Freq
 --------------------------------------------------------------------

 Structure from the checkpoint file:  "SM42_m1.a.4.pdb.xyz.mst.a.w.chk"
 -------------------
 SM42_m1.a.4.pdb.xyz
 -------------------
 Charge = -1 Multiplicity = 1

 SCF Done:  E(RB3LYP) =  -1311.62307976     A.U. after    1 cycles

  Exact polarizability: 337.154 -11.025 228.876  -1.217 -49.062 245.224
 Approx polarizability: 346.703 -17.984 268.906   1.511 -67.679 314.654

                      1                      2                      3
                      A                      A                      A
 Frequencies --     23.5144                24.6069                26.7187
 Red. masses --      4.0325                 6.0184                 3.7759
 Frc consts  --      0.0013                 0.0021                 0.0016
 IR Inten    --      1.6188                 3.4163                 0.1722

                      4                      5                      6
                      A                      A                      A
 Frequencies --     55.9530                81.6882                85.7657
 Red. masses --      8.3761                 6.4905                 5.3671
 Frc consts  --      0.0155                 0.0255                 0.0233
 IR Inten    --      1.9692                 0.0299                 3.8582

                      7                      8                      9
                      A                      A                      A
 Frequencies --    129.4104               146.2911               185.3557
 Red. masses --      7.3601                 7.0271                 6.6274
 Frc consts  --      0.0726                 0.0886                 0.1342
 IR Inten    --      1.9556                 0.2059                 2.0067

                     10                     11                     12
                      A                      A                      A
 Frequencies --    221.1198               249.2272               280.0516
 Red. masses --      5.4418                 7.4842                 7.3732
 Frc consts  --      0.1568                 0.2739                 0.3407
 IR Inten    --      1.3985                13.8027                 9.5645

                     13                     14                     15
                      A                      A                      A
 Frequencies --    305.9466               314.6183               372.0274
 Red. masses --      7.6006                 9.1195                 8.2056
 Frc consts  --      0.4192                 0.5318                 0.6691
 IR Inten    --      3.4335                 9.1967                 5.5854

                     16                     17                     18
                      A                      A                      A
 Frequencies --    390.5125               412.9482               413.0269
 Red. masses --      8.0408                 2.9652                 2.9800
 Frc consts  --      0.7225                 0.2979                 0.2995
 IR Inten    --      1.8462                 0.1524                 0.1445

                     19                     20                     21
                      A                      A                      A
 Frequencies --    439.8468               454.6234               493.1453
 Red. masses --     10.8034                 6.7989                 4.3985
 Frc consts  --      1.2314                 0.8279                 0.6302
 IR Inten    --      4.0279                23.5835                 8.5970

                     22                     23                     24
                      A                      A                      A
 Frequencies --    496.1727               554.1913               583.8586
 Red. masses --      4.1396                12.0957                 7.4296
 Frc consts  --      0.6004                 2.1888                 1.4922
 IR Inten    --      4.1906               167.0623               234.6741

                     25                     26                     27
                      A                      A                      A
 Frequencies --    627.1443               631.5434               657.7258
 Red. masses --      6.4331                 6.4409                 7.1467
 Frc consts  --      1.4907                 1.5136                 1.8216
 IR Inten    --      0.1392                 0.0515                 0.3806

                     28                     29                     30
                      A                      A                      A
 Frequencies --    688.8074               701.1700               704.3850
 Red. masses --      6.8369                 2.5571                 3.0671
 Frc consts  --      1.9112                 0.7407                 0.8966
 IR Inten    --      4.7765                60.1044                11.2615

                     31                     32                     33
                      A                      A                      A
 Frequencies --    705.4815               717.0690               744.9239
 Red. masses --      2.5686                 3.6961                 9.9754
 Frc consts  --      0.7532                 1.1197                 3.2614
 IR Inten    --     43.0740                14.0792               219.5738

                     34                     35                     36
                      A                      A                      A
 Frequencies --    762.5769               779.0161               804.4923
 Red. masses --      1.5397                 1.5208                 1.9032
 Frc consts  --      0.5276                 0.5438                 0.7257
 IR Inten    --     37.2079                92.7101                14.7086

                     37                     38                     39
                      A                      A                      A
 Frequencies --    859.8309               863.2509               891.3399
 Red. masses --      1.2485                 1.2532                12.0186
 Frc consts  --      0.5438                 0.5502                 5.6259
 IR Inten    --      0.0804                 0.1208               180.3010

                     40                     41                     42
                      A                      A                      A
 Frequencies --    922.2523               935.8139               939.7249
 Red. masses --     12.1290                 1.3288                 1.3955
 Frc consts  --      6.0782                 0.6857                 0.7261
 IR Inten    --     81.2961                 2.4087                 3.3923

                     43                     44                     45
                      A                      A                      A
 Frequencies --    957.9772               981.9459               982.5534
 Red. masses --      8.4696                 1.3522                 1.3543
 Frc consts  --      4.5795                 0.7682                 0.7704
 IR Inten    --     27.7497                 0.0218                 0.2363

                     46                     47                     48
                      A                      A                      A
 Frequencies --   1009.8047              1011.0146              1014.0841
 Red. masses --      1.2623                 1.2683                 6.3301
 Frc consts  --      0.7584                 0.7638                 3.8354
 IR Inten    --      0.1113                 0.1474                10.9740

                     49                     50                     51
                      A                      A                      A
 Frequencies --   1016.7789              1038.4720              1048.3978
 Red. masses --      6.0952                 2.8116                 2.7467
 Frc consts  --      3.7127                 1.7865                 1.7787
 IR Inten    --      0.1588                49.6929                11.7173

                     52                     53                     54
                      A                      A                      A
 Frequencies --   1055.2152              1071.2970              1096.3336
 Red. masses --      2.4263                 3.4139                 4.7806
 Frc consts  --      1.5917                 2.3085                 3.3855
 IR Inten    --      6.1011               342.8620               160.6418

                     55                     56                     57
                      A                      A                      A
 Frequencies --   1104.6421              1108.5699              1120.7143
 Red. masses --      1.5568                 1.5810                 3.6955
 Frc consts  --      1.1193                 1.1447                 2.7347
 IR Inten    --     21.5520                14.2212               213.4224

                     58                     59                     60
                      A                      A                      A
 Frequencies --   1187.5764              1189.4771              1200.0654
 Red. masses --      1.0957                 1.0924                 1.1779
 Frc consts  --      0.9105                 0.9106                 0.9994
 IR Inten    --      0.0998                 0.0013                 6.3180

                     61                     62                     63
                      A                      A                      A
 Frequencies --   1204.6779              1213.1391              1235.1517
 Red. masses --      1.1496                13.9259                 2.3472
 Frc consts  --      0.9830                12.0752                 2.1098
 IR Inten    --     14.8618               394.2691               112.0418

                     64                     65                     66
                      A                      A                      A
 Frequencies --   1295.0754              1337.3339              1349.5590
 Red. masses --      4.7608                 1.5006                 3.1466
 Frc consts  --      4.7046                 1.5813                 3.3765
 IR Inten    --      5.7106                 1.7917                30.8948

                     67                     68                     69
                      A                      A                      A
 Frequencies --   1359.3264              1367.8274              1435.9295
 Red. masses --      4.9614                 2.0588                 6.9528
 Frc consts  --      5.4014                 2.2695                 8.4465
 IR Inten    --      1.5951                 1.6566               264.0947

                     70                     71                     72
                      A                      A                      A
 Frequencies --   1485.2361              1489.1009              1499.5790
 Red. masses --      3.7603                 2.4451                 2.9279
 Frc consts  --      4.8872                 3.1944                 3.8792
 IR Inten    --    349.3978               122.4670               348.6425

                     73                     74                     75
                      A                      A                      A
 Frequencies --   1523.5907              1541.3299              1627.5850
 Red. masses --      2.0839                 2.3790                 5.6924
 Frc consts  --      2.8501                 3.3300                 8.8845
 IR Inten    --      5.8506               160.7947               110.6746

                     76                     77                     78
                      A                      A                      A
 Frequencies --   1641.3128              1644.7976              1651.5397
 Red. masses --      5.8629                 5.5386                 6.8917
 Frc consts  --      9.3056                 8.8283                11.0753
 IR Inten    --      0.1525                 0.5814               107.0601

                     79                     80                     81
                      A                      A                      A
 Frequencies --   1667.6051              3205.5566              3206.2513
 Red. masses --      6.1409                 1.0857                 1.0859
 Frc consts  --     10.0617                 6.5733                 6.5773
 IR Inten    --     30.8035                 3.7928                 0.2049

                     82                     83                     84
                      A                      A                      A
 Frequencies --   3212.1040              3215.5935              3220.4875
 Red. masses --      1.0883                 1.0893                 1.0925
 Frc consts  --      6.6157                 6.6359                 6.6759
 IR Inten    --      5.8488                19.5682                42.8185

                     85                     86                     87
                      A                      A                      A
 Frequencies --   3224.7381              3229.9088              3232.3370
 Red. masses --      1.0932                 1.0958                 1.0955
 Frc consts  --      6.6980                 6.7352                 6.7438
 IR Inten    --     36.3782                45.2909                23.4703

                     88                     89                     90
                      A                      A                      A
 Frequencies --   3237.0317              3246.3788              3304.5129
 Red. masses --      1.0945                 1.0925                 1.0983
 Frc consts  --      6.7574                 6.7840                 7.0659
 IR Inten    --     11.4099                 8.2957                 1.1077

 - Thermochemistry -
 -------------------
 Temperature   298.150 Kelvin.  Pressure   1.00000 Atm.
 Atom     1 has atomic number  8 and mass  15.99491

 Molecular mass:   299.04904 amu.
 Principal axes and moments of inertia in atomic units:
                           1         2         3
     Eigenvalues --  2941.94364********************
           X            0.99955  -0.02643   0.01418
           Y            0.02499   0.99528   0.09378
           Z           -0.01659  -0.09339   0.99549
 This molecule is an asymmetric top.
 Rotational symmetry number  1.
 Warning -- assumption of classical behavior for rotation
           may cause significant error
 Rotational temperatures (Kelvin)      0.02944     0.00641     0.00589
 Rotational constants (GHZ):           0.61345     0.13361     0.12269
 Zero-point vibrational energy     615937.4 (Joules/Mol)
                                  147.21256 (Kcal/Mol)
 Warning -- explicit consideration of  24 degrees of freedom as
           vibrations may cause significant error
 Vibrational temperatures:     33.83    35.40    38.44    80.50   117.53
          (Kelvin)            123.40   186.19   210.48   266.69   318.14
                              358.58   402.93   440.19   452.67   535.26
                              561.86   594.14   594.25   632.84   654.10
                              709.53   713.88   797.36   840.04   902.32
                              908.65   946.32   991.04  1008.83  1013.45
                             1015.03  1031.70  1071.78  1097.18  1120.83
                             1157.49  1237.10  1242.03  1282.44  1326.92
                             1346.43  1352.05  1378.32  1412.80  1413.68
                             1452.88  1454.62  1459.04  1462.92  1494.13
                             1508.41  1518.22  1541.36  1577.38  1589.33
                             1594.98  1612.46  1708.66  1711.39  1726.63
                             1733.26  1745.44  1777.11  1863.32  1924.13
                             1941.71  1955.77  1968.00  2065.98  2136.92
                             2142.48  2157.56  2192.11  2217.63  2341.73
                             2361.48  2366.50  2376.20  2399.31  4612.08
                             4613.08  4621.50  4626.52  4633.56  4639.68
                             4647.12  4650.61  4657.37  4670.82  4754.46

 Zero-point correction=                           0.234598 (Hartree/Particle)
 Thermal correction to Energy=                    0.251553
 Thermal correction to Enthalpy=                  0.252497
 Thermal correction to Gibbs Free Energy=         0.186753
 Sum of electronic and zero-point Energies=          -1311.388482
 Sum of electronic and thermal Energies=             -1311.371526
 Sum of electronic and thermal Enthalpies=           -1311.370582
 Sum of electronic and thermal Free Energies=        -1311.436327

                     E (Thermal)             CV                S
                      KCal/Mol        Cal/Mol-Kelvin    Cal/Mol-Kelvin
 Total                  157.852             65.799            138.372
 Electronic               0.000              0.000              0.000
 Translational            0.889              2.981             42.983
 Rotational               0.889              2.981             34.724
 Vibrational            156.075             59.837             60.665
 Vibration     1          0.593              1.985              6.313
 Vibration     2          0.593              1.985              6.223
 Vibration     3          0.593              1.984              6.059
 Vibration     4          0.596              1.975              4.595
 Vibration     5          0.600              1.962              3.850
 Vibration     6          0.601              1.959              3.754
 Vibration     7          0.612              1.924              2.955
 Vibration     8          0.617              1.907              2.720
 Vibration     9          0.631              1.860              2.274
 Vibration    10          0.648              1.809              1.950
 Vibration    11          0.662              1.764              1.736
 Vibration    12          0.680              1.710              1.533
 Vibration    13          0.696              1.662              1.384
 Vibration    14          0.702              1.646              1.338
 Vibration    15          0.744              1.530              1.071
 Vibration    16          0.758              1.490              0.998
 Vibration    17          0.777              1.442              0.916
 Vibration    18          0.777              1.442              0.916
 Vibration    19          0.800              1.383              0.827
 Vibration    20          0.813              1.351              0.782
 Vibration    21          0.849              1.265              0.675
 Vibration    22          0.852              1.259              0.668
 Vibration    23          0.910              1.131              0.536
 Vibration    24          0.941              1.066              0.478

 Optimization completed on the basis of negligible forces.
    -- Stationary point found.
 Normal termination of Gaussian 16 at Thu Sep 24 07:17:46 2020.

 ----------------------------------------------------------------------
 #p b3lyp/6-31G(d) scrf=(iefpcm,read,solvent=water) geom=allcheck guess
 =read
 ----------------------------------------------------------------------

 Structure from the checkpoint file:  "SM42_m1.a.4.pdb.xyz.mst.a.w.chk"
 -------------------
 SM42_m1.a.4.pdb.xyz
 -------------------
 Charge = -1 Multiplicity = 1

 SCF Done:  E(RB3LYP) =  -1311.62302559     A.U. after    7 cycles
 Normal termination of Gaussian 16 at Thu Sep 24 07:18:25 2020.

 -----------------------------
 #p B3LYP/6-31G* geom=allcheck
 -----------------------------

 Structure from the checkpoint file:  "SM42_m1.a.4.pdb.xyz.mst.a.w.chk"
 -------------------
 SM42_m1.a.4.pdb.xyz
 -------------------
 Charge = -1 Multiplicity = 1

 SCF Done:  E(RB3LYP) =  -1311.52356376     A.U. after   15 cycles
 Normal termination of Gaussian 16 at Thu Sep 24 07:19:10 2020.
 Gaussian 16:  ES64L-G16RevB.01 20-Dec-2017

 ----------------------------------------------------------------------
 #p mp2/aug-cc-pVDZ scf=(MaxCycle=2000,NoVarAcc,NoIncFock) maxdisk=120G
 B geom=allcheck
 ----------------------------------------------------------------------

 Structure from the checkpoint file:  "SM42_m1.a.4.pdb.xyz.mst.a.w.chk"
 -------------------
 SM42_m1.a.4.pdb.xyz
 -------------------
 Charge = -1 Multiplicity = 1

                         Standard orientation:
 ---------------------------------------------------------------------
 Center     Atomic      Atomic             Coordinates (Angstroms)
 Number     Number       Type             X           Y           Z
 ---------------------------------------------------------------------
      1          8           0        3.442779   -2.341873    0.499117
      2         16           0        2.500594   -1.456965   -0.230531
      3          7           0        1.069057   -1.656009    0.478406
      4          6           0       -0.028901   -0.969081    0.030695
      5          7           0       -0.071543   -0.091657   -0.974053
      6          8           0       -1.422206    0.353117   -1.028334
      7          6           0       -2.137292   -0.274937   -0.063161
      8          6           0       -3.558210    0.052350    0.035567
      9          6           0       -4.359780   -0.560734    1.012768
     10          6           0       -5.713384   -0.250944    1.107979
     11          6           0       -6.287027    0.674192    0.231036
     12          6           0       -5.496062    1.287825   -0.742833
     13          6           0       -4.140829    0.980903   -0.842206
     14          6           0       -1.323893   -1.114895    0.633726
     15          6           0        3.058726    0.230232    0.085356
     16          6           0        3.211095    1.123503   -0.974382
     17          6           0        3.644196    2.425639   -0.717468
     18          6           0        3.917818    2.827217    0.591058
     19          6           0        3.762027    1.925141    1.648206
     20          6           0        3.332400    0.622816    1.399302
     21          8           0        2.496408   -1.617293   -1.709842
     22          1           0       -3.920156   -1.279037    1.696196
     23          1           0       -6.321439   -0.731645    1.866981
     24          1           0       -7.342248    0.914238    0.306891
     25          1           0       -5.934645    2.006831   -1.426831
     26          1           0       -3.525420    1.455637   -1.597097
     27          1           0       -1.576143   -1.756652    1.462379
     28          1           0        2.995089    0.791269   -1.982175
     29          1           0        3.766412    3.123559   -1.538883
     30          1           0        4.253050    3.839956    0.788807
     31          1           0        3.977544    2.235311    2.665105
     32          1           0        3.214699   -0.081340    2.215250
 ---------------------------------------------------------------------

 SCF Done:  E(RHF) =  -1305.45437028     A.U. after   18 cycles
 E2 =    -0.3121442920D+01 EUMP2 =    -0.13085758131993D+04

 The electronic state is 1-A.
 Alpha  occ. eigenvalues --  -92.05139 -20.50711 -20.38311 -20.38123 -15.46331
 Alpha  occ. eigenvalues --  -15.39497 -11.20489 -11.18269 -11.17851 -11.17508
 Alpha  occ. eigenvalues --  -11.17382 -11.17249 -11.17168 -11.16724 -11.14917
 Alpha  occ. eigenvalues --  -11.14730 -11.14413 -11.14291 -11.14221 -11.13863
 Alpha  occ. eigenvalues --  -11.11725  -9.01852  -6.70401  -6.70325  -6.70298
 Alpha  occ. eigenvalues --   -1.34163  -1.27607  -1.15232  -1.08961  -1.07914
 Alpha  occ. eigenvalues --   -1.05336  -0.98816  -0.96296  -0.94580  -0.92192
 Alpha  occ. eigenvalues --   -0.91710  -0.91308  -0.77693  -0.76712  -0.75534
 Alpha  occ. eigenvalues --   -0.72745  -0.70165  -0.68030  -0.64437  -0.62797
 Alpha  occ. eigenvalues --   -0.59705  -0.57852  -0.55372  -0.54984  -0.53155
 Alpha  occ. eigenvalues --   -0.52614  -0.52082  -0.51770  -0.50872  -0.50392
 Alpha  occ. eigenvalues --   -0.48844  -0.48399  -0.46334  -0.44521  -0.43325
 Alpha  occ. eigenvalues --   -0.42850  -0.41924  -0.41502  -0.40452  -0.39460
 Alpha  occ. eigenvalues --   -0.36288  -0.34169  -0.33808  -0.32101  -0.30991
 Alpha  occ. eigenvalues --   -0.29943  -0.29074  -0.26721  -0.25809  -0.23597
 Alpha  occ. eigenvalues --   -0.23421  -0.20856  -0.18979
 Alpha virt. eigenvalues --    0.08644   0.09716   0.10286   0.10777   0.11372
 Alpha virt. eigenvalues --    0.12419   0.12705   0.13757   0.14971   0.15591
 Alpha virt. eigenvalues --    0.15717   0.16412   0.17562   0.17736   0.17926

 Mulliken charges:
               1
     1  O   -1.239535
     2  S    3.123133
     3  N   -1.316073
     4  C   -0.335306
     5  N   -0.208063
     6  O   -1.083150
     7  C    0.240056
     8  C    1.336232
     9  C    0.617188
    10  C    0.002132
    11  C    0.555847
    12  C    0.170427
    13  C    0.480897
    14  C    1.546170
    15  C    0.633857
    16  C    0.272167
    17  C    0.512978
    18  C    0.517476
    19  C    0.453428
    20  C   -0.097079
    21  O   -1.316252
    22  H   -0.581003
    23  H   -0.499959
    24  H   -0.453344
    25  H   -0.455687
    26  H   -0.652792
    27  H   -0.613542
    28  H   -0.581677
    29  H   -0.478854
    30  H   -0.462478
    31  H   -0.475808
    32  H   -0.611388
 Sum of Mulliken charges =  -1.00000

 Dipole moment (field-independent basis, Debye):
    X=             -8.9422    Y=              7.3622    Z=              3.1495  Tot=             12.0035
 Quadrupole moment (field-independent basis, Debye-Ang):
   XX=           -165.5859   YY=           -151.1860   ZZ=           -137.3185
   XY=             24.0341   XZ=              0.8550   YZ=             -6.2137

 Normal termination of Gaussian 16 at Thu Sep 24 08:15:49 2020.
