 Gaussian 16, Revision B.01,

 ----------------------------------------------------------------------
 #p b3lyp/6-31G(d) opt freq NoSymm scf=(MaxCycle=2000,NoVarAcc,NoIncFoc
 k) scrf=(iefpcm,read,solvent=water)
 ----------------------------------------------------------------------

 -------------------
 SM43_m0.n.8.pdb.xyz
 -------------------
 Symbolic Z-matrix:
 Charge =  0 Multiplicity = 1

 SCF Done:  E(RB3LYP) =  -1215.00788408     A.U. after   13 cycles
 SCF Done:  E(RB3LYP) =  -1215.00788325     A.U. after    9 cycles
 SCF Done:  E(RB3LYP) =  -1215.00789684     A.U. after    8 cycles
 SCF Done:  E(RB3LYP) =  -1215.00789761     A.U. after    8 cycles
 SCF Done:  E(RB3LYP) =  -1215.00789791     A.U. after    8 cycles
 SCF Done:  E(RB3LYP) =  -1215.00789813     A.U. after    8 cycles
 SCF Done:  E(RB3LYP) =  -1215.00789798     A.U. after    8 cycles
 SCF Done:  E(RB3LYP) =  -1215.00790029     A.U. after    8 cycles
 SCF Done:  E(RB3LYP) =  -1215.00790325     A.U. after    8 cycles
 SCF Done:  E(RB3LYP) =  -1215.00790370     A.U. after    7 cycles
 SCF Done:  E(RB3LYP) =  -1215.00790457     A.U. after    7 cycles
 SCF Done:  E(RB3LYP) =  -1215.00790379     A.U. after    8 cycles
 SCF Done:  E(RB3LYP) =  -1215.00790458     A.U. after    8 cycles
 SCF Done:  E(RB3LYP) =  -1215.00790359     A.U. after    8 cycles
 SCF Done:  E(RB3LYP) =  -1215.00790371     A.U. after    7 cycles
 SCF Done:  E(RB3LYP) =  -1215.00790378     A.U. after    8 cycles
 Optimization completed.
    -- Stationary point found.
 Normal termination of Gaussian 16 at Wed Sep 23 01:51:27 2020.

 --------------------------------------------------------------------
 #P Geom=AllCheck Guess=TCheck SCRF=Check GenChk RB3LYP/6-31G(d) Freq
 --------------------------------------------------------------------

 Structure from the checkpoint file:  "SM43_m0.n.8.pdb.xyz.mst.n.w.chk"
 -------------------
 SM43_m0.n.8.pdb.xyz
 -------------------
 Charge =  0 Multiplicity = 1

 SCF Done:  E(RB3LYP) =  -1215.00790378     A.U. after    1 cycles

  Exact polarizability: 323.887   6.473 216.938  -7.551 -17.402 115.229
 Approx polarizability: 335.282  10.938 268.018  -9.030 -26.897 136.877

                      1                      2                      3
                      A                      A                      A
 Frequencies --     17.7398                25.3900                38.8351
 Red. masses --      5.6076                 4.0031                 5.6080
 Frc consts  --      0.0010                 0.0015                 0.0050
 IR Inten    --      2.9572                 3.7248                 6.1535

                      4                      5                      6
                      A                      A                      A
 Frequencies --     63.9728                85.7828               100.2928
 Red. masses --      3.2722                 4.8430                 4.6174
 Frc consts  --      0.0079                 0.0210                 0.0274
 IR Inten    --      0.5442                 5.1274                 4.6881

                      7                      8                      9
                      A                      A                      A
 Frequencies --    120.7286               146.3755               178.9690
 Red. masses --      5.9501                 1.4786                 1.6694
 Frc consts  --      0.0511                 0.0187                 0.0315
 IR Inten    --      2.5459                 2.3075                 0.9783

                     10                     11                     12
                      A                      A                      A
 Frequencies --    204.8057               223.9891               252.4811
 Red. masses --      1.2470                 5.2341                 5.5052
 Frc consts  --      0.0308                 0.1547                 0.2068
 IR Inten    --      1.8079                 0.1858                 4.3623

                     13                     14                     15
                      A                      A                      A
 Frequencies --    270.9480               309.2379               328.9484
 Red. masses --      4.0651                 7.9764                 4.8445
 Frc consts  --      0.1758                 0.4494                 0.3089
 IR Inten    --      1.5309                 8.9292                12.1728

                     16                     17                     18
                      A                      A                      A
 Frequencies --    355.9946               381.1619               391.4615
 Red. masses --      3.0191                 7.4251                 8.5449
 Frc consts  --      0.2254                 0.6356                 0.7715
 IR Inten    --      3.0809                 9.4612                10.8146

                     19                     20                     21
                      A                      A                      A
 Frequencies --    411.2910               444.1397               471.9235
 Red. masses --      2.9583                 1.7672                 3.3228
 Frc consts  --      0.2948                 0.2054                 0.4360
 IR Inten    --      0.0308                84.8929                45.4302

                     22                     23                     24
                      A                      A                      A
 Frequencies --    478.2073               490.7349               500.0024
 Red. masses --      5.1718                 5.5806                 4.1948
 Frc consts  --      0.6968                 0.7918                 0.6179
 IR Inten    --     34.1892                55.1005                 7.7027

                     25                     26                     27
                      A                      A                      A
 Frequencies --    555.8338               630.6510               659.4531
 Red. masses --     10.7876                 6.4466                 7.6271
 Frc consts  --      1.9637                 1.5106                 1.9542
 IR Inten    --    217.2285                 0.0597                 4.9135

                     28                     29                     30
                      A                      A                      A
 Frequencies --    674.1000               692.2242               702.6988
 Red. masses --      5.9930                 5.3356                 1.8365
 Frc consts  --      1.6045                 1.5064                 0.5343
 IR Inten    --    125.1888                25.7458                65.7525

                     31                     32                     33
                      A                      A                      A
 Frequencies --    708.0393               776.3544               790.8495
 Red. masses --      3.7809                 1.4020                 3.6324
 Frc consts  --      1.1168                 0.4979                 1.3386
 IR Inten    --     52.6842               129.1300                96.2129

                     34                     35                     36
                      A                      A                      A
 Frequencies --    804.9422               827.3012               864.5221
 Red. masses --      2.4733                 5.6433                 1.2542
 Frc consts  --      0.9442                 2.2757                 0.5523
 IR Inten    --     13.3612               282.5308                 0.2034

                     37                     38                     39
                      A                      A                      A
 Frequencies --    943.8446               953.5410               961.3001
 Red. masses --      1.3907                 3.1396                 8.9836
 Frc consts  --      0.7299                 1.6819                 4.8912
 IR Inten    --      3.2630               139.1518                24.9743

                     40                     41                     42
                      A                      A                      A
 Frequencies --    968.5217               985.9166              1014.6973
 Red. masses --     10.0501                 1.3513                 1.2675
 Frc consts  --      5.5544                 0.7739                 0.7689
 IR Inten    --     72.9158                 0.0590                 0.0412

                     43                     44                     45
                      A                      A                      A
 Frequencies --   1017.0671              1049.1173              1065.2492
 Red. masses --      6.1280                 2.4911                 2.5186
 Frc consts  --      3.7348                 1.6155                 1.6839
 IR Inten    --      0.9328                 5.1642                27.6398

                     46                     47                     48
                      A                      A                      A
 Frequencies --   1070.4109              1089.3109              1110.6566
 Red. masses --      1.5573                 3.4466                 1.6323
 Frc consts  --      1.0513                 2.4096                 1.1863
 IR Inten    --     23.2671                44.4220                35.7951

                     49                     50                     51
                      A                      A                      A
 Frequencies --   1114.7657              1132.3557              1173.4054
 Red. masses --     10.3343                 1.2191                 1.3712
 Frc consts  --      7.5666                 0.9210                 1.1124
 IR Inten    --    296.4512                 3.4523                 0.6492

                     52                     53                     54
                      A                      A                      A
 Frequencies --   1190.6276              1205.0914              1218.6188
 Red. masses --      1.0956                 1.2239                 1.7918
 Frc consts  --      0.9150                 1.0472                 1.5678
 IR Inten    --      0.1859                21.4513                28.8055

                     55                     56                     57
                      A                      A                      A
 Frequencies --   1228.6896              1286.0666              1292.1646
 Red. masses --      3.7852                 1.9956                 4.6643
 Frc consts  --      3.3669                 1.9447                 4.5886
 IR Inten    --     32.5069                30.6117                40.6860

                     58                     59                     60
                      A                      A                      A
 Frequencies --   1311.7573              1347.3117              1369.3757
 Red. masses --      6.7663                 2.8962                 2.1627
 Frc consts  --      6.8598                 3.0976                 2.3894
 IR Inten    --    268.9936                28.4713                 0.6265

                     61                     62                     63
                      A                      A                      A
 Frequencies --   1391.5206              1454.2469              1468.6391
 Red. masses --      1.9320                 1.1427                 1.1528
 Frc consts  --      2.2041                 1.4239                 1.4649
 IR Inten    --     64.5588                 0.2642                 8.3689

                     64                     65                     66
                      A                      A                      A
 Frequencies --   1492.3119              1502.8620              1507.8604
 Red. masses --      2.4290                 1.0475                 1.0874
 Frc consts  --      3.1870                 1.3940                 1.4567
 IR Inten    --     67.0897                10.5812                 7.0739

                     67                     68                     69
                      A                      A                      A
 Frequencies --   1513.4449              1514.3779              1521.8891
 Red. masses --      3.1829                 1.0860                 1.1563
 Frc consts  --      4.2954                 1.4674                 1.5780
 IR Inten    --    555.1891                16.4209                54.2952

                     70                     71                     72
                      A                      A                      A
 Frequencies --   1523.1289              1557.6586              1630.0411
 Red. masses --      2.0676                 3.4607                 5.4596
 Frc consts  --      2.8261                 4.9472                 8.5469
 IR Inten    --    159.5124                21.6428               100.8731

                     73                     74                     75
                      A                      A                      A
 Frequencies --   1653.8067              1666.9401              3061.9139
 Red. masses --      6.4341                 6.0426                 1.0421
 Frc consts  --     10.3683                 9.8927                 5.7563
 IR Inten    --    107.4815                70.1769                49.5033

                     76                     77                     78
                      A                      A                      A
 Frequencies --   3072.5939              3147.2117              3149.5296
 Red. masses --      1.0395                 1.0952                 1.1015
 Frc consts  --      5.7823                 6.3914                 6.4378
 IR Inten    --     49.2505                43.9072                11.1347

                     79                     80                     81
                      A                      A                      A
 Frequencies --   3194.1899              3206.3389              3208.6456
 Red. masses --      1.1036                 1.1017                 1.0858
 Frc consts  --      6.6341                 6.6732                 6.5865
 IR Inten    --      8.1468                 6.2156                 1.5825

                     82                     83                     84
                      A                      A                      A
 Frequencies --   3214.9727              3222.8844              3231.1570
 Red. masses --      1.0884                 1.0925                 1.0958
 Frc consts  --      6.6283                 6.6861                 6.7408
 IR Inten    --      5.0448                38.5170                40.6928

                     85                     86                     87
                      A                      A                      A
 Frequencies --   3239.0587              3309.9934              3559.1642
 Red. masses --      1.0951                 1.0992                 1.0774
 Frc consts  --      6.7693                 7.0954                 8.0411
 IR Inten    --     13.1551                 1.9861               214.6201

 - Thermochemistry -
 -------------------
 Temperature   298.150 Kelvin.  Pressure   1.00000 Atm.
 Atom     1 has atomic number  8 and mass  15.99491

 Molecular mass:   267.06776 amu.
 Principal axes and moments of inertia in atomic units:
                           1         2         3
     Eigenvalues --  1461.80757********************
           X            0.99995  -0.00903  -0.00518
           Y            0.00890   0.99968  -0.02387
           Z            0.00540   0.02382   0.99970
 This molecule is an asymmetric top.
 Rotational symmetry number  1.
 Warning -- assumption of classical behavior for rotation
           may cause significant error
 Rotational temperatures (Kelvin)      0.05925     0.00736     0.00700
 Rotational constants (GHZ):           1.23460     0.15328     0.14594
 Zero-point vibrational energy     629813.7 (Joules/Mol)
                                  150.52909 (Kcal/Mol)
 Warning -- explicit consideration of  25 degrees of freedom as
           vibrations may cause significant error
 Vibrational temperatures:     25.52    36.53    55.88    92.04   123.42
          (Kelvin)            144.30   173.70   210.60   257.50   294.67
                              322.27   363.26   389.83   444.92   473.28
                              512.20   548.41   563.23   591.76   639.02
                              678.99   688.03   706.06   719.39   799.72
                              907.37   948.81   969.88   995.96  1011.03
                             1018.71  1117.00  1137.86  1158.13  1190.30
                             1243.85  1357.98  1371.93  1383.10  1393.49
                             1418.51  1459.92  1463.33  1509.45  1532.66
                             1540.08  1567.28  1597.99  1603.90  1629.21
                             1688.27  1713.05  1733.86  1753.32  1767.81
                             1850.36  1859.14  1887.33  1938.48  1970.23
                             2002.09  2092.34  2113.04  2147.10  2162.28
                             2169.47  2177.51  2178.85  2189.66  2191.44
                             2241.12  2345.27  2379.46  2398.35  4405.41
                             4420.78  4528.14  4531.47  4595.73  4613.21
                             4616.53  4625.63  4637.01  4648.91  4660.28
                             4762.34  5120.84

 Zero-point correction=                           0.239883 (Hartree/Particle)
 Thermal correction to Energy=                    0.256890
 Thermal correction to Enthalpy=                  0.257834
 Thermal correction to Gibbs Free Energy=         0.192629
 Sum of electronic and zero-point Energies=          -1214.768020
 Sum of electronic and thermal Energies=             -1214.751014
 Sum of electronic and thermal Enthalpies=           -1214.750070
 Sum of electronic and thermal Free Energies=        -1214.815275

                     E (Thermal)             CV                S
                      KCal/Mol        Cal/Mol-Kelvin    Cal/Mol-Kelvin
 Total                  161.201             63.465            137.235
 Electronic               0.000              0.000              0.000
 Translational            0.889              2.981             42.646
 Rotational               0.889              2.981             33.720
 Vibrational            159.423             57.503             60.869
 Vibration     1          0.593              1.986              6.872
 Vibration     2          0.593              1.985              6.160
 Vibration     3          0.594              1.981              5.318
 Vibration     4          0.597              1.971              4.331
 Vibration     5          0.601              1.959              3.754
 Vibration     6          0.604              1.949              3.449
 Vibration     7          0.609              1.932              3.089
 Vibration     8          0.617              1.907              2.719
 Vibration     9          0.629              1.868              2.339
 Vibration    10          0.640              1.833              2.089
 Vibration    11          0.649              1.805              1.927
 Vibration    12          0.664              1.759              1.713
 Vibration    13          0.675              1.727              1.590
 Vibration    14          0.699              1.656              1.366
 Vibration    15          0.712              1.618              1.265
 Vibration    16          0.732              1.563              1.140
 Vibration    17          0.751              1.510              1.035
 Vibration    18          0.759              1.488              0.995
 Vibration    19          0.775              1.446              0.922
 Vibration    20          0.804              1.374              0.814
 Vibration    21          0.829              1.312              0.732
 Vibration    22          0.835              1.298              0.715
 Vibration    23          0.847              1.271              0.682
 Vibration    24          0.855              1.250              0.658
 Vibration    25          0.911              1.127              0.532

                           ! Non-Optimized Parameters !
 Normal termination of Gaussian 16 at Wed Sep 23 01:59:44 2020.

 ----------------------------------------------------------------------
 #p b3lyp/6-31G(d) scrf=(iefpcm,read,solvent=water) geom=allcheck guess
 =read
 ----------------------------------------------------------------------

 Structure from the checkpoint file:  "SM43_m0.n.8.pdb.xyz.mst.n.w.chk"
 -------------------
 SM43_m0.n.8.pdb.xyz
 -------------------
 Charge =  0 Multiplicity = 1

 SCF Done:  E(RB3LYP) =  -1215.00790512     A.U. after    5 cycles
 Normal termination of Gaussian 16 at Wed Sep 23 02:00:15 2020.

 -----------------------------
 #p B3LYP/6-31G* geom=allcheck
 -----------------------------

 Structure from the checkpoint file:  "SM43_m0.n.8.pdb.xyz.mst.n.w.chk"
 -------------------
 SM43_m0.n.8.pdb.xyz
 -------------------
 Charge =  0 Multiplicity = 1

 SCF Done:  E(RB3LYP) =  -1214.98647961     A.U. after   15 cycles
 Normal termination of Gaussian 16 at Wed Sep 23 02:00:55 2020.
 Gaussian 16:  ES64L-G16RevB.01 20-Dec-2017

 ----------------------------------------------------------------------
 #p mp2/aug-cc-pVDZ scf=(MaxCycle=2000,NoVarAcc,NoIncFock) maxdisk=120G
 B geom=allcheck
 ----------------------------------------------------------------------

 Structure from the checkpoint file:  "SM43_m0.n.8.pdb.xyz.mst.n.w.chk"
 -------------------
 SM43_m0.n.8.pdb.xyz
 -------------------
 Charge =  0 Multiplicity = 1

                         Standard orientation:
 ---------------------------------------------------------------------
 Center     Atomic      Atomic             Coordinates (Angstroms)
 Number     Number       Type             X           Y           Z
 ---------------------------------------------------------------------
      1          8           0       -2.693574    0.026657   -1.816506
      2         16           0       -3.073857   -0.535853   -0.522048
      3          7           0       -1.673764   -0.957582    0.363408
      4          6           0       -0.425730   -0.364831    0.187932
      5          7           0       -0.291667    0.924465   -0.060448
      6          8           0        1.095183    1.130754   -0.133653
      7          6           0        1.742668   -0.038584    0.092861
      8          6           0        3.201028   -0.017033    0.063385
      9          6           0        3.924162   -1.200310    0.284464
     10          6           0        5.315322   -1.185752    0.258742
     11          6           0        6.001229    0.006759    0.012543
     12          6           0        5.287290    1.186650   -0.208486
     13          6           0        3.894574    1.179017   -0.183933
     14          6           0        0.825228   -1.029528    0.301714
     15          7           0       -3.880725    0.647601    0.310143
     16          6           0       -4.272540    0.302046    1.684652
     17          6           0       -3.444291    2.039050    0.122166
     18          8           0       -3.877239   -1.755903   -0.438195
     19          1           0       -1.652993   -1.960433    0.538651
     20          1           0        3.395703   -2.127833    0.474814
     21          1           0        5.864864   -2.104873    0.430612
     22          1           0        7.085630    0.015621   -0.006972
     23          1           0        5.815243    2.114606   -0.400193
     24          1           0        3.338574    2.093155   -0.355004
     25          1           0        0.997315   -2.074515    0.499964
     26          1           0       -4.668824   -0.711963    1.704903
     27          1           0       -5.060119    0.995476    1.983874
     28          1           0       -3.431917    0.387100    2.382925
     29          1           0       -3.236183    2.211954   -0.931236
     30          1           0       -2.557727    2.279498    0.716963
     31          1           0       -4.273359    2.677499    0.432350
 ---------------------------------------------------------------------

 SCF Done:  E(RHF) =  -1209.53052840     A.U. after   17 cycles
 E2 =    -0.2783467483D+01 EUMP2 =    -0.12123139958814D+04

 The electronic state is 1-A.
 Alpha  occ. eigenvalues --  -92.25199 -20.65727 -20.56427 -20.56308 -15.63579
 Alpha  occ. eigenvalues --  -15.62425 -15.61627 -11.34591 -11.34483 -11.27946
 Alpha  occ. eigenvalues --  -11.27718 -11.26950 -11.26863 -11.26546 -11.26512
 Alpha  occ. eigenvalues --  -11.26197 -11.26041 -11.25577  -9.21578  -6.90145
 Alpha  occ. eigenvalues --   -6.90088  -6.90049  -1.49727  -1.47557  -1.34770
 Alpha  occ. eigenvalues --   -1.28062  -1.25451  -1.18531  -1.14461  -1.10092
 Alpha  occ. eigenvalues --   -1.03974  -1.03260  -0.98042  -0.95938  -0.88812
 Alpha  occ. eigenvalues --   -0.86984  -0.84669  -0.81825  -0.78014  -0.75645
 Alpha  occ. eigenvalues --   -0.72731  -0.71329  -0.69832  -0.67299  -0.66886
 Alpha  occ. eigenvalues --   -0.66009  -0.65480  -0.64034  -0.63362  -0.61370
 Alpha  occ. eigenvalues --   -0.61107  -0.60647  -0.58240  -0.57190  -0.56942
 Alpha  occ. eigenvalues --   -0.54792  -0.53915  -0.53000  -0.52538  -0.51431
 Alpha  occ. eigenvalues --   -0.51390  -0.49574  -0.48918  -0.47977  -0.47048
 Alpha  occ. eigenvalues --   -0.41468  -0.41261  -0.38823  -0.35735  -0.32582
 Alpha virt. eigenvalues --    0.02525   0.03177   0.03625   0.04182   0.04699
 Alpha virt. eigenvalues --    0.05245   0.05573   0.05702   0.06320   0.07118
 Alpha virt. eigenvalues --    0.07672   0.08140   0.08838   0.09180   0.09556

 Mulliken charges:
               1
     1  O   -1.117894
     2  S    3.017929
     3  N   -0.907517
     4  C   -0.296421
     5  N   -0.189844
     6  O   -1.094077
     7  C   -0.010215
     8  C    1.496301
     9  C    0.609202
    10  C    0.057274
    11  C    0.525000
    12  C    0.182884
    13  C    0.397997
    14  C    1.825415
    15  N   -1.153337
    16  C    0.725428
    17  C    0.873108
    18  O   -1.087858
    19  H   -0.026389
    20  H   -0.581185
    21  H   -0.483721
    22  H   -0.433342
    23  H   -0.441057
    24  H   -0.654969
    25  H   -0.585880
    26  H   -0.132292
    27  H   -0.165962
    28  H   -0.018454
    29  H   -0.137300
    30  H   -0.000794
    31  H   -0.192030
 Sum of Mulliken charges =  -0.00000

 Dipole moment (field-independent basis, Debye):
    X=              4.1541    Y=             -0.4195    Z=              4.4149  Tot=              6.0765
 Quadrupole moment (field-independent basis, Debye-Ang):
   XX=            -99.2357   YY=           -105.9203   ZZ=           -121.1208
   XY=            -12.1447   XZ=            -14.1016   YZ=             -3.4851

 Normal termination of Gaussian 16 at Wed Sep 23 02:35:24 2020.
