 Gaussian 16, Revision B.01,

 ----------------------------------------------------------------------
 #p b3lyp/6-31G(d) opt freq NoSymm scf=(MaxCycle=2000,NoVarAcc,NoIncFoc
 k) scrf=(iefpcm,read,solvent=water)
 ----------------------------------------------------------------------

 --------------------
 SM43_m1.a.10.pdb.xyz
 --------------------
 Symbolic Z-matrix:
 Charge = -1 Multiplicity = 1

 SCF Done:  E(RB3LYP) =  -1214.53779782     A.U. after   13 cycles
 SCF Done:  E(RB3LYP) =  -1214.53770425     A.U. after    9 cycles
 SCF Done:  E(RB3LYP) =  -1214.53772054     A.U. after    9 cycles
 SCF Done:  E(RB3LYP) =  -1214.53779489     A.U. after    9 cycles
 SCF Done:  E(RB3LYP) =  -1214.53779933     A.U. after    8 cycles
 SCF Done:  E(RB3LYP) =  -1214.53773462     A.U. after    9 cycles
 SCF Done:  E(RB3LYP) =  -1214.53773415     A.U. after    7 cycles
 SCF Done:  E(RB3LYP) =  -1214.53779536     A.U. after    9 cycles
 SCF Done:  E(RB3LYP) =  -1214.53779909     A.U. after    8 cycles
 SCF Done:  E(RB3LYP) =  -1214.53779932     A.U. after    7 cycles
 SCF Done:  E(RB3LYP) =  -1214.53779511     A.U. after    9 cycles
 SCF Done:  E(RB3LYP) =  -1214.53779902     A.U. after    8 cycles
 SCF Done:  E(RB3LYP) =  -1214.53773348     A.U. after   10 cycles
 SCF Done:  E(RB3LYP) =  -1214.53779512     A.U. after    9 cycles
 SCF Done:  E(RB3LYP) =  -1214.53779901     A.U. after    8 cycles
 SCF Done:  E(RB3LYP) =  -1214.53773358     A.U. after   10 cycles
 Optimization completed.
    -- Stationary point found.
 Normal termination of Gaussian 16 at Thu Sep 24 07:44:13 2020.

 --------------------------------------------------------------------
 #P Geom=AllCheck Guess=TCheck SCRF=Check GenChk RB3LYP/6-31G(d) Freq
 --------------------------------------------------------------------

 Structure from the checkpoint file:  "SM43_m1.a.10.pdb.xyz.mst.a.w.chk"
 --------------------
 SM43_m1.a.10.pdb.xyz
 --------------------
 Charge = -1 Multiplicity = 1

 SCF Done:  E(RB3LYP) =  -1214.53773358     A.U. after    1 cycles

  Exact polarizability: 338.325  15.217 209.326  10.875 -31.501 131.645
 Approx polarizability: 347.428  22.098 260.179  12.523 -47.162 154.816

                      1                      2                      3
                      A                      A                      A
 Frequencies --     16.9006                32.9995                43.4093
 Red. masses --      4.7740                 5.0664                 4.1279
 Frc consts  --      0.0008                 0.0033                 0.0046
 IR Inten    --      5.1286                 3.8934                 1.3199

                      4                      5                      6
                      A                      A                      A
 Frequencies --     67.8444                88.6408                96.0382
 Red. masses --      4.5214                 4.6183                 4.5633
 Frc consts  --      0.0123                 0.0214                 0.0248
 IR Inten    --      0.4046                 2.5304                 1.8477

                      7                      8                      9
                      A                      A                      A
 Frequencies --    145.4878               167.2265               205.4313
 Red. masses --      7.6313                 2.0737                 1.8033
 Frc consts  --      0.0952                 0.0342                 0.0448
 IR Inten    --      0.4596                 4.1879                 0.2107

                     10                     11                     12
                      A                      A                      A
 Frequencies --    224.7693               241.7933               259.3412
 Red. masses --      1.0698                 4.9148                 4.5918
 Frc consts  --      0.0318                 0.1693                 0.1820
 IR Inten    --      0.7162                 6.9779                13.0690

                     13                     14                     15
                      A                      A                      A
 Frequencies --    267.5606               320.1153               335.4390
 Red. masses --      3.3428                 8.7959                 3.3419
 Frc consts  --      0.1410                 0.5311                 0.2215
 IR Inten    --      1.3801                16.9252                 9.4395

                     16                     17                     18
                      A                      A                      A
 Frequencies --    356.0853               392.4771               405.6180
 Red. masses --      4.8287                 8.0922                 7.2971
 Frc consts  --      0.3607                 0.7344                 0.7073
 IR Inten    --      7.0606                 4.5592                 3.6390

                     19                     20                     21
                      A                      A                      A
 Frequencies --    414.3759               468.7036               475.2878
 Red. masses --      3.0033                 5.9984                 6.3199
 Frc consts  --      0.3038                 0.7764                 0.8411
 IR Inten    --      0.0394                36.2037                 3.9421

                     22                     23                     24
                      A                      A                      A
 Frequencies --    490.5837               496.9784               571.9143
 Red. masses --      4.7052                 4.2653                 9.8298
 Frc consts  --      0.6672                 0.6207                 1.8943
 IR Inten    --     39.4124                 0.1867               153.8837

                     25                     26                     27
                      A                      A                      A
 Frequencies --    631.7084               643.2733               654.4557
 Red. masses --      6.4554                 7.8568                 7.3765
 Frc consts  --      1.5178                 1.9155                 1.8615
 IR Inten    --      0.2333               298.3005                 7.3697

                     28                     29                     30
                      A                      A                      A
 Frequencies --    689.6408               707.2909               712.3928
 Red. masses --      6.7804                 1.8593                 4.3014
 Frc consts  --      1.9000                 0.5480                 1.2862
 IR Inten    --     11.7641                58.7961                56.3973

                     31                     32                     33
                      A                      A                      A
 Frequencies --    723.0343               780.7302               802.8484
 Red. masses --      7.7350                 1.4560                 1.9146
 Frc consts  --      2.3825                 0.5229                 0.7271
 IR Inten    --    189.7759               100.7227                 6.8176

                     34                     35                     36
                      A                      A                      A
 Frequencies --    865.3768               887.5160               917.5520
 Red. masses --      1.2521                12.1068                13.0560
 Frc consts  --      0.5525                 5.6187                 6.4762
 IR Inten    --      0.0748               198.3259                57.9628

                     37                     38                     39
                      A                      A                      A
 Frequencies --    938.9305               943.3865               957.7343
 Red. masses --      3.2163                 1.3845                 8.4398
 Frc consts  --      1.6706                 0.7260                 4.5611
 IR Inten    --    130.5743                 3.5427                31.4626

                     40                     41                     42
                      A                      A                      A
 Frequencies --    984.0469              1013.7153              1016.3413
 Red. masses --      1.3497                 1.2588                 6.0970
 Frc consts  --      0.7701                 0.7622                 3.7106
 IR Inten    --      0.0395                 0.1055                 0.2167

                     43                     44                     45
                      A                      A                      A
 Frequencies --   1033.6672              1055.5836              1062.5975
 Red. masses --      2.1932                 2.4697                 1.4973
 Frc consts  --      1.3807                 1.6214                 0.9961
 IR Inten    --     15.2121                14.4206                12.4073

                     46                     47                     48
                      A                      A                      A
 Frequencies --   1078.9289              1096.8165              1109.2587
 Red. masses --      6.3949                 5.2452                 1.5818
 Frc consts  --      4.3860                 3.7178                 1.1467
 IR Inten    --    440.8837               242.6412                14.1906

                     49                     50                     51
                      A                      A                      A
 Frequencies --   1126.2656              1173.9737              1188.8388
 Red. masses --      1.2217                 1.4009                 1.0989
 Frc consts  --      0.9131                 1.1376                 0.9151
 IR Inten    --      8.1339                 2.9481                 0.6254

                     52                     53                     54
                      A                      A                      A
 Frequencies --   1203.7261              1216.9858              1229.1577
 Red. masses --      1.1900                 4.8956                 2.3769
 Frc consts  --      1.0159                 4.2720                 2.1158
 IR Inten    --     24.9289                39.8663                72.3026

                     55                     56                     57
                      A                      A                      A
 Frequencies --   1235.7188              1270.1841              1294.7416
 Red. masses --      9.6078                 1.9500                 4.8836
 Frc consts  --      8.6440                 1.8536                 4.8235
 IR Inten    --    461.6821                16.2420                 4.7054

                     58                     59                     60
                      A                      A                      A
 Frequencies --   1348.2658              1368.2704              1430.8694
 Red. masses --      3.3221                 1.9906                 6.6055
 Frc consts  --      3.5581                 2.1957                 7.9681
 IR Inten    --     34.8424                 2.2270               290.0370

                     61                     62                     63
                      A                      A                      A
 Frequencies --   1444.1187              1459.2053              1484.0615
 Red. masses --      1.1513                 1.1886                 4.8044
 Frc consts  --      1.4146                 1.4912                 6.2344
 IR Inten    --      3.3413                15.6556               523.8180

                     64                     65                     66
                      A                      A                      A
 Frequencies --   1497.9406              1503.3102              1508.8320
 Red. masses --      2.4741                 1.0573                 1.0551
 Frc consts  --      3.2708                 1.4078                 1.4152
 IR Inten    --    207.5011                23.3220                41.6004

                     67                     68                     69
                      A                      A                      A
 Frequencies --   1514.9648              1522.3094              1541.6022
 Red. masses --      1.0905                 1.0500                 2.3535
 Frc consts  --      1.4746                 1.4337                 3.2954
 IR Inten    --     12.2778                13.1569               154.3761

                     70                     71                     72
                      A                      A                      A
 Frequencies --   1627.2873              1651.7441              1666.8850
 Red. masses --      5.7135                 6.8563                 6.1749
 Frc consts  --      8.9142                11.0212                10.1087
 IR Inten    --    107.9435               109.1199                32.5682

                     73                     74                     75
                      A                      A                      A
 Frequencies --   3025.3097              3045.5454              3111.5054
 Red. masses --      1.0498                 1.0427                 1.0971
 Frc consts  --      5.6610                 5.6984                 6.2578
 IR Inten    --     79.7142                77.5227                88.5574

                     76                     77                     78
                      A                      A                      A
 Frequencies --   3115.0947              3176.4660              3192.8422
 Red. masses --      1.0896                 1.1003                 1.0980
 Frc consts  --      6.2294                 6.5412                 6.5947
 IR Inten    --     26.0352                16.4649                12.0040

                     79                     80                     81
                      A                      A                      A
 Frequencies --   3205.1755              3211.7976              3219.5327
 Red. masses --      1.0857                 1.0885                 1.0926
 Frc consts  --      6.5714                 6.6155                 6.6723
 IR Inten    --      1.7822                 4.7888                45.3897

                     82                     83                     84
                      A                      A                      A
 Frequencies --   3229.0449              3237.9775              3301.6379
 Red. masses --      1.0961                 1.0943                 1.0983
 Frc consts  --      6.7335                 6.7598                 7.0540
 IR Inten    --     46.6122                12.5176                 1.0634

 - Thermochemistry -
 -------------------
 Temperature   298.150 Kelvin.  Pressure   1.00000 Atm.
 Atom     1 has atomic number  8 and mass  15.99491

 Molecular mass:   266.05994 amu.
 Principal axes and moments of inertia in atomic units:
                           1         2         3
     Eigenvalues --  1520.60333********************
           X            0.99945  -0.00933  -0.03189
           Y            0.01299   0.99309   0.11667
           Z            0.03058  -0.11702   0.99266
 This molecule is an asymmetric top.
 Rotational symmetry number  1.
 Warning -- assumption of classical behavior for rotation
           may cause significant error
 Rotational temperatures (Kelvin)      0.05696     0.00746     0.00724
 Rotational constants (GHZ):           1.18686     0.15547     0.15082
 Zero-point vibrational energy     594980.9 (Joules/Mol)
                                  142.20384 (Kcal/Mol)
 Warning -- explicit consideration of  24 degrees of freedom as
           vibrations may cause significant error
 Vibrational temperatures:     24.32    47.48    62.46    97.61   127.53
          (Kelvin)            138.18   209.32   240.60   295.57   323.39
                              347.89   373.13   384.96   460.57   482.62
                              512.33   564.69   583.59   596.19   674.36
                              683.83   705.84   715.04   822.86   908.89
                              925.53   941.62   992.24  1017.63  1024.97
                             1040.29  1123.30  1155.12  1245.08  1276.94
                             1320.15  1350.91  1357.32  1377.97  1415.82
                             1458.51  1462.29  1487.22  1518.75  1528.84
                             1552.34  1578.07  1595.98  1620.45  1689.09
                             1710.47  1731.89  1750.97  1768.48  1777.92
                             1827.51  1862.84  1939.85  1968.64  2058.70
                             2077.76  2099.47  2135.23  2155.20  2162.93
                             2170.87  2179.70  2190.26  2218.02  2341.30
                             2376.49  2398.28  4352.75  4381.86  4476.76
                             4481.93  4570.23  4593.79  4611.53  4621.06
                             4632.19  4645.88  4658.73  4750.32

 Zero-point correction=                           0.226616 (Hartree/Particle)
 Thermal correction to Energy=                    0.243130
 Thermal correction to Enthalpy=                  0.244074
 Thermal correction to Gibbs Free Energy=         0.180225
 Sum of electronic and zero-point Energies=          -1214.311117
 Sum of electronic and thermal Energies=             -1214.294604
 Sum of electronic and thermal Enthalpies=           -1214.293659
 Sum of electronic and thermal Free Energies=        -1214.357508

                     E (Thermal)             CV                S
                      KCal/Mol        Cal/Mol-Kelvin    Cal/Mol-Kelvin
 Total                  152.566             62.048            134.382
 Electronic               0.000              0.000              0.000
 Translational            0.889              2.981             42.635
 Rotational               0.889              2.981             33.712
 Vibrational            150.789             56.087             58.034
 Vibration     1          0.593              1.986              6.969
 Vibration     2          0.594              1.983              5.640
 Vibration     3          0.595              1.980              5.097
 Vibration     4          0.598              1.970              4.215
 Vibration     5          0.601              1.957              3.690
 Vibration     6          0.603              1.952              3.533
 Vibration     7          0.617              1.908              2.730
 Vibration     8          0.624              1.883              2.466
 Vibration     9          0.640              1.832              2.084
 Vibration    10          0.649              1.803              1.920
 Vibration    11          0.658              1.776              1.790
 Vibration    12          0.668              1.747              1.666
 Vibration    13          0.673              1.733              1.612
 Vibration    14          0.706              1.635              1.310
 Vibration    15          0.717              1.605              1.234
 Vibration    16          0.732              1.563              1.139
 Vibration    17          0.760              1.486              0.991
 Vibration    18          0.771              1.458              0.942
 Vibration    19          0.778              1.439              0.911
 Vibration    20          0.826              1.319              0.741
 Vibration    21          0.832              1.305              0.723
 Vibration    22          0.846              1.271              0.682
 Vibration    23          0.853              1.257              0.666
 Vibration    24          0.928              1.092              0.501

 Optimization completed.
    -- Stationary point found.
 Normal termination of Gaussian 16 at Thu Sep 24 07:52:20 2020.

 ----------------------------------------------------------------------
 #p b3lyp/6-31G(d) scrf=(iefpcm,read,solvent=water) geom=allcheck guess
 =read
 ----------------------------------------------------------------------

 Structure from the checkpoint file:  "SM43_m1.a.10.pdb.xyz.mst.a.w.chk"
 --------------------
 SM43_m1.a.10.pdb.xyz
 --------------------
 Charge = -1 Multiplicity = 1

 SCF Done:  E(RB3LYP) =  -1214.53774343     A.U. after    7 cycles
 Normal termination of Gaussian 16 at Thu Sep 24 07:53:02 2020.

 -----------------------------
 #p B3LYP/6-31G* geom=allcheck
 -----------------------------

 Structure from the checkpoint file:  "SM43_m1.a.10.pdb.xyz.mst.a.w.chk"
 --------------------
 SM43_m1.a.10.pdb.xyz
 --------------------
 Charge = -1 Multiplicity = 1

 SCF Done:  E(RB3LYP) =  -1214.43868162     A.U. after   15 cycles
 Normal termination of Gaussian 16 at Thu Sep 24 07:53:39 2020.
 Gaussian 16:  ES64L-G16RevB.01 20-Dec-2017

 ----------------------------------------------------------------------
 #p mp2/aug-cc-pVDZ scf=(MaxCycle=2000,NoVarAcc,NoIncFock) maxdisk=120G
 B geom=allcheck
 ----------------------------------------------------------------------

 Structure from the checkpoint file:  "SM43_m1.a.10.pdb.xyz.mst.a.w.chk"
 --------------------
 SM43_m1.a.10.pdb.xyz
 --------------------
 Charge = -1 Multiplicity = 1

                         Standard orientation:
 ---------------------------------------------------------------------
 Center     Atomic      Atomic             Coordinates (Angstroms)
 Number     Number       Type             X           Y           Z
 ---------------------------------------------------------------------
      1          8           0       -3.069323    0.484220   -1.712729
      2         16           0       -3.106581   -0.419457   -0.538886
      3          7           0       -1.697006   -1.099272   -0.147619
      4          6           0       -0.513264   -0.409830   -0.218192
      5          7           0       -0.332856    0.874169   -0.533279
      6          8           0        1.073240    1.087000   -0.463235
      7          6           0        1.682681   -0.071615   -0.112181
      8          6           0        3.139595   -0.052063    0.006676
      9          6           0        3.836962   -1.218440    0.363911
     10          6           0        5.224260   -1.201825    0.476457
     11          6           0        5.936488   -0.023726    0.234952
     12          6           0        5.250350    1.139595   -0.120374
     13          6           0        3.861667    1.128854   -0.234395
     14          6           0        0.746570   -1.044641    0.056697
     15          7           0       -3.725434    0.561912    0.728883
     16          6           0       -3.773186   -0.118796    2.025856
     17          6           0       -3.199940    1.927040    0.818640
     18          8           0       -4.076195   -1.535337   -0.605766
     19          1           0        3.290174   -2.136043    0.552514
     20          1           0        5.750674   -2.109136    0.752778
     21          1           0        7.017683   -0.013501    0.323102
     22          1           0        5.796656    2.057633   -0.309366
     23          1           0        3.328125    2.030814   -0.510019
     24          1           0        0.895838   -2.075740    0.333594
     25          1           0       -4.204063   -1.111483    1.896253
     26          1           0       -4.419458    0.460269    2.690873
     27          1           0       -2.782870   -0.211632    2.493962
     28          1           0       -3.160657    2.362437   -0.178023
     29          1           0       -2.202556    1.975852    1.272645
     30          1           0       -3.892049    2.509787    1.433534
 ---------------------------------------------------------------------

 SCF Done:  E(RHF) =  -1208.98490962     A.U. after   18 cycles
 E2 =    -0.2796492131D+01 EUMP2 =    -0.12117814017487D+04

 The electronic state is 1-A.
 Alpha  occ. eigenvalues --  -92.05996 -20.50624 -20.37966 -20.37469 -15.46172
 Alpha  occ. eigenvalues --  -15.45292 -15.39287 -11.20434 -11.18263 -11.17875
 Alpha  occ. eigenvalues --  -11.17514 -11.17389 -11.17263 -11.17178 -11.16748
 Alpha  occ. eigenvalues --  -11.13871 -11.13094 -11.11668  -9.02418  -6.70987
 Alpha  occ. eigenvalues --   -6.70917  -6.70884  -1.34071  -1.28150  -1.15171
 Alpha  occ. eigenvalues --   -1.09119  -1.08768  -1.07368  -0.98735  -0.95910
 Alpha  occ. eigenvalues --   -0.94515  -0.91292  -0.83596  -0.78409  -0.77400
 Alpha  occ. eigenvalues --   -0.75807  -0.69981  -0.67886  -0.64152  -0.60498
 Alpha  occ. eigenvalues --   -0.58323  -0.55496  -0.54989  -0.53656  -0.52050
 Alpha  occ. eigenvalues --   -0.51805  -0.51392  -0.50422  -0.49405  -0.47809
 Alpha  occ. eigenvalues --   -0.45485  -0.44372  -0.43444  -0.43162  -0.42766
 Alpha  occ. eigenvalues --   -0.42625  -0.41509  -0.39288  -0.36065  -0.34234
 Alpha  occ. eigenvalues --   -0.33613  -0.31963  -0.30484  -0.29925  -0.29385
 Alpha  occ. eigenvalues --   -0.27127  -0.26705  -0.24531  -0.20947  -0.18528
 Alpha virt. eigenvalues --    0.08639   0.09711   0.10751   0.11964   0.12606
 Alpha virt. eigenvalues --    0.13248   0.13711   0.14752   0.15393   0.15779
 Alpha virt. eigenvalues --    0.16575   0.16710   0.17103   0.17811   0.17909

 Mulliken charges:
               1
     1  O   -1.228777
     2  S    2.924108
     3  N   -1.171130
     4  C   -0.372234
     5  N   -0.246808
     6  O   -1.080992
     7  C    0.295295
     8  C    1.297562
     9  C    0.629216
    10  C   -0.011129
    11  C    0.554315
    12  C    0.193458
    13  C    0.463709
    14  C    1.582676
    15  N   -1.169826
    16  C    0.709430
    17  C    0.843340
    18  O   -1.188817
    19  H   -0.583209
    20  H   -0.499281
    21  H   -0.453805
    22  H   -0.455176
    23  H   -0.655827
    24  H   -0.612221
    25  H   -0.143452
    26  H   -0.185825
    27  H   -0.040220
    28  H   -0.146853
    29  H   -0.033998
    30  H   -0.213529
 Sum of Mulliken charges =  -1.00000

 Dipole moment (field-independent basis, Debye):
    X=             11.7949    Y=              1.3192    Z=              5.4658  Tot=             13.0666
 Quadrupole moment (field-independent basis, Debye-Ang):
   XX=           -162.7573   YY=           -122.0557   ZZ=           -127.0881
   XY=            -12.8755   XZ=            -15.6496   YZ=             -1.0405

 Normal termination of Gaussian 16 at Thu Sep 24 08:28:11 2020.
