 Gaussian 16, Revision B.01,

 ----------------------------------------------------------------------
 #p b3lyp/6-31G(d) opt freq NoSymm scf=(MaxCycle=2000,NoVarAcc,NoIncFoc
 k) scrf=(iefpcm,read,solvent=water)
 ----------------------------------------------------------------------

 -------------------
 SM43_m3.b.1.pdb.xyz
 -------------------
 Symbolic Z-matrix:
 Charge =  2 Multiplicity = 1

 SCF Done:  E(RB3LYP) =  -1215.87103164     A.U. after   13 cycles
 SCF Done:  E(RB3LYP) =  -1215.87103682     A.U. after    8 cycles
 SCF Done:  E(RB3LYP) =  -1215.87103733     A.U. after    7 cycles
 SCF Done:  E(RB3LYP) =  -1215.87103613     A.U. after    7 cycles
 SCF Done:  E(RB3LYP) =  -1215.87103584     A.U. after    6 cycles
 SCF Done:  E(RB3LYP) =  -1215.87103582     A.U. after    6 cycles
 Optimization completed.
    -- Stationary point found.
 Normal termination of Gaussian 16 at Mon Sep 28 08:18:02 2020.

 --------------------------------------------------------------------
 #P Geom=AllCheck Guess=TCheck SCRF=Check GenChk RB3LYP/6-31G(d) Freq
 --------------------------------------------------------------------

 Structure from the checkpoint file:  "SM43_m3.b.1.pdb.xyz.mst.b.w.chk"
 -------------------
 SM43_m3.b.1.pdb.xyz
 -------------------
 Charge =  2 Multiplicity = 1

 SCF Done:  E(RB3LYP) =  -1215.87103582     A.U. after    1 cycles

  Exact polarizability: 349.356   2.627 193.471   0.764 -39.548 130.994
 Approx polarizability: 355.798   9.381 239.974   0.054 -54.867 158.371

                      1                      2                      3
                      A                      A                      A
 Frequencies --     34.5313                42.0612                59.1135
 Red. masses --      4.2363                 5.4853                 4.9114
 Frc consts  --      0.0030                 0.0057                 0.0101
 IR Inten    --      0.6862                 2.9127                 4.6526

                      4                      5                      6
                      A                      A                      A
 Frequencies --     83.4269                96.5241               114.6022
 Red. masses --      5.6642                 4.9338                 2.6029
 Frc consts  --      0.0232                 0.0271                 0.0201
 IR Inten    --      3.0494                 1.8619                 3.6800

                      7                      8                      9
                      A                      A                      A
 Frequencies --    139.1910               181.0094               214.9870
 Red. masses --      6.9574                 5.0602                 1.6894
 Frc consts  --      0.0794                 0.0977                 0.0460
 IR Inten    --      2.6911                 5.0787                 0.7721

                     10                     11                     12
                      A                      A                      A
 Frequencies --    219.6644               254.7251               273.6205
 Red. masses --      5.4235                 2.1131                 5.3300
 Frc consts  --      0.1542                 0.0808                 0.2351
 IR Inten    --      0.4356                 0.4664                 3.4419

                     13                     14                     15
                      A                      A                      A
 Frequencies --    291.5248               303.7781               319.7063
 Red. masses --      5.3442                 1.9966                 3.7323
 Frc consts  --      0.2676                 0.1086                 0.2248
 IR Inten    --      1.1761                16.7762                 6.8339

                     16                     17                     18
                      A                      A                      A
 Frequencies --    327.9491               374.0119               407.0722
 Red. masses --      1.6329                 6.0688                 2.9172
 Frc consts  --      0.1035                 0.5002                 0.2848
 IR Inten    --     23.6460                29.3363                 0.2105

                     19                     20                     21
                      A                      A                      A
 Frequencies --    419.8591               426.6388               441.8558
 Red. masses --      1.8602                 4.9182                 3.4721
 Frc consts  --      0.1932                 0.5274                 0.3994
 IR Inten    --    122.8280                14.4302                21.1150

                     22                     23                     24
                      A                      A                      A
 Frequencies --    459.2124               491.6433               497.0066
 Red. masses --      4.1352                 3.1480                 3.3970
 Frc consts  --      0.5138                 0.4483                 0.4944
 IR Inten    --     68.5606                19.6259                17.2447

                     25                     26                     27
                      A                      A                      A
 Frequencies --    545.1643               572.2572               619.4198
 Red. masses --      3.3188                 1.9287                 5.0593
 Frc consts  --      0.5811                 0.3721                 1.1437
 IR Inten    --      6.2620               288.5278               268.3500

                     28                     29                     30
                      A                      A                      A
 Frequencies --    628.8281               647.9361               696.9717
 Red. masses --      6.4350                 4.8344                 3.5553
 Frc consts  --      1.4992                 1.1958                 1.0176
 IR Inten    --      1.9710                35.0188                15.0058

                     31                     32                     33
                      A                      A                      A
 Frequencies --    698.4602               705.1896               788.1036
 Red. masses --      2.2661                 3.4623                 1.6175
 Frc consts  --      0.6513                 1.0145                 0.5919
 IR Inten    --     51.4608                50.4466               100.4043

                     34                     35                     36
                      A                      A                      A
 Frequencies --    790.6083               827.9299               859.4385
 Red. masses --      3.8375                 1.6936                 3.9398
 Frc consts  --      1.4133                 0.6840                 1.7146
 IR Inten    --     14.8658                30.9743               138.7591

                     37                     38                     39
                      A                      A                      A
 Frequencies --    862.1347               869.6892               953.9739
 Red. masses --      1.2570                 4.5483                 7.1457
 Frc consts  --      0.5505                 2.0269                 3.8315
 IR Inten    --      0.0934               271.5512                34.3013

                     40                     41                     42
                      A                      A                      A
 Frequencies --    957.6352               991.3195              1003.7227
 Red. masses --      1.3919                 1.3591                 2.6155
 Frc consts  --      0.7521                 0.7869                 1.5525
 IR Inten    --      2.8800                 0.0108                21.9601

                     43                     44                     45
                      A                      A                      A
 Frequencies --   1017.4733              1024.1173              1044.0266
 Red. masses --      6.0682                 1.2969                 4.4108
 Frc consts  --      3.7013                 0.8014                 2.8327
 IR Inten    --      7.4267                 0.0054                43.1434

                     46                     47                     48
                      A                      A                      A
 Frequencies --   1064.0174              1084.8068              1086.0028
 Red. masses --      2.8633                 1.1854                 2.1717
 Frc consts  --      1.9099                 0.8219                 1.5091
 IR Inten    --     19.3362                 5.7263                87.1877

                     49                     50                     51
                      A                      A                      A
 Frequencies --   1118.7669              1150.2749              1156.6092
 Red. masses --      1.5860                10.3305                 1.7348
 Frc consts  --      1.1696                 8.0533                 1.3674
 IR Inten    --     14.2291               325.4013                 8.2735

                     52                     53                     54
                      A                      A                      A
 Frequencies --   1173.1973              1189.7372              1196.1843
 Red. masses --      5.6810                 1.3413                 1.0920
 Frc consts  --      4.6070                 1.1186                 0.9206
 IR Inten    --     21.4182                30.5950                 0.3622

                     55                     56                     57
                      A                      A                      A
 Frequencies --   1213.8619              1247.3257              1259.8313
 Red. masses --      1.1409                 1.6680                 1.5974
 Frc consts  --      0.9905                 1.5290                 1.4938
 IR Inten    --     36.0898               145.3481                 2.3871

                     58                     59                     60
                      A                      A                      A
 Frequencies --   1292.3420              1353.9202              1377.5511
 Red. masses --      4.0919                 2.5521                 2.1021
 Frc consts  --      4.0265                 2.7564                 2.3503
 IR Inten    --     23.1309                28.3547                15.4147

                     61                     62                     63
                      A                      A                      A
 Frequencies --   1387.7664              1413.4383              1430.7570
 Red. masses --      4.2494                 1.6154                 1.3613
 Frc consts  --      4.8218                 1.9014                 1.6419
 IR Inten    --    159.9452                72.4479                62.9106

                     64                     65                     66
                      A                      A                      A
 Frequencies --   1446.4867              1456.5905              1474.9163
 Red. masses --      1.4092                 1.6066                 1.2124
 Frc consts  --      1.7372                 2.0083                 1.5539
 IR Inten    --     19.4227                62.6989                56.3288

                     67                     68                     69
                      A                      A                      A
 Frequencies --   1478.3484              1498.2245              1507.1265
 Red. masses --      1.1537                 2.3261                 1.0464
 Frc consts  --      1.4855                 3.0764                 1.4004
 IR Inten    --     11.0604                65.0265                17.8665

                     70                     71                     72
                      A                      A                      A
 Frequencies --   1517.2707              1520.6785              1529.9419
 Red. masses --      1.0499                 1.0491                 2.0892
 Frc consts  --      1.4241                 1.4293                 2.8812
 IR Inten    --     10.7507                43.2324               582.2213

                     73                     74                     75
                      A                      A                      A
 Frequencies --   1536.1027              1553.5361              1602.6322
 Red. masses --      1.0676                 2.2243                 4.2404
 Frc consts  --      1.4843                 3.1628                 6.4168
 IR Inten    --     45.2351               836.1370                 6.5850

                     76                     77                     78
                      A                      A                      A
 Frequencies --   1640.3456              1655.0520              1661.1464
 Red. masses --      5.0379                 4.8540                 5.3879
 Frc consts  --      7.9867                 7.8338                 8.7596
 IR Inten    --     67.7820               724.8144                42.2579

                     79                     80                     81
                      A                      A                      A
 Frequencies --   3131.6626              3134.0090              3218.7059
 Red. masses --      1.0298                 1.0288                 1.0866
 Frc consts  --      5.9502                 5.9536                 6.6328
 IR Inten    --      3.0031                 1.6714                 0.1391

                     82                     83                     84
                      A                      A                      A
 Frequencies --   3227.3579              3227.3900              3232.2233
 Red. masses --      1.0888                 1.1085                 1.1082
 Frc consts  --      6.6817                 6.8028                 6.8212
 IR Inten    --      5.5796                 3.2103                 0.3123

                     85                     86                     87
                      A                      A                      A
 Frequencies --   3233.8793              3241.4576              3243.4750
 Red. masses --      1.0921                 1.0947                 1.1111
 Frc consts  --      6.7292                 6.7769                 6.8868
 IR Inten    --     25.7692                25.7081                 2.8441

                     88                     89                     90
                      A                      A                      A
 Frequencies --   3245.5384              3245.6196              3345.6071
 Red. masses --      1.0972                 1.1100                 1.0992
 Frc consts  --      6.8091                 6.8889                 7.2487
 IR Inten    --     14.4875                 0.6223                19.7998

                     91                     92                     93
                      A                      A                      A
 Frequencies --   3359.9948              3441.1597              3541.1563
 Red. masses --      1.0779                 1.0780                 1.0877
 Frc consts  --      7.1695                 7.5210                 8.0364
 IR Inten    --    371.5209               388.4898               766.1464

 - Thermochemistry -
 -------------------
 Temperature   298.150 Kelvin.  Pressure   1.00000 Atm.
 Atom     1 has atomic number  8 and mass  15.99491

 Molecular mass:   269.08341 amu.
 Principal axes and moments of inertia in atomic units:
                           1         2         3
     Eigenvalues --  1498.56067********************
           X            0.99995   0.00331  -0.00932
           Y           -0.00055   0.95966   0.28117
           Z            0.00987  -0.28115   0.95961
 This molecule is an asymmetric top.
 Rotational symmetry number  1.
 Warning -- assumption of classical behavior for rotation
           may cause significant error
 Rotational temperatures (Kelvin)      0.05780     0.00713     0.00691
 Rotational constants (GHZ):           1.20432     0.14849     0.14397
 Zero-point vibrational energy     705331.0 (Joules/Mol)
                                  168.57816 (Kcal/Mol)
 Warning -- explicit consideration of  27 degrees of freedom as
           vibrations may cause significant error
 Vibrational temperatures:     49.68    60.52    85.05   120.03   138.88
          (Kelvin)            164.89   200.26   260.43   309.32   316.05
                              366.49   393.68   419.44   437.07   459.99
                              471.85   538.12   585.69   604.08   613.84
                              635.73   660.70   707.37   715.08   784.37
                              823.35   891.21   904.74   932.24  1002.79
                             1004.93  1014.61  1133.91  1137.51  1191.21
                             1236.54  1240.42  1251.29  1372.56  1377.82
                             1426.29  1444.13  1463.92  1473.48  1502.12
                             1530.88  1560.79  1562.52  1609.66  1654.99
                             1664.10  1687.97  1711.77  1721.04  1746.48
                             1794.62  1812.62  1859.39  1947.99  1981.99
                             1996.69  2033.62  2058.54  2081.17  2095.71
                             2122.08  2127.01  2155.61  2168.42  2183.01
                             2187.92  2201.25  2210.11  2235.19  2305.83
                             2360.09  2381.25  2390.02  4505.76  4509.14
                             4631.00  4643.45  4643.49  4650.45  4652.83
                             4663.73  4666.64  4669.61  4669.72  4813.58
                             4834.28  4951.06  5094.93

 Zero-point correction=                           0.268646 (Hartree/Particle)
 Thermal correction to Energy=                    0.285483
 Thermal correction to Enthalpy=                  0.286427
 Thermal correction to Gibbs Free Energy=         0.223477
 Sum of electronic and zero-point Energies=          -1215.602389
 Sum of electronic and thermal Energies=             -1215.585553
 Sum of electronic and thermal Enthalpies=           -1215.584609
 Sum of electronic and thermal Free Energies=        -1215.647559

                     E (Thermal)             CV                S
                      KCal/Mol        Cal/Mol-Kelvin    Cal/Mol-Kelvin
 Total                  179.143             64.710            132.489
 Electronic               0.000              0.000              0.000
 Translational            0.889              2.981             42.669
 Rotational               0.889              2.981             33.790
 Vibrational            177.366             58.749             56.031
 Vibration     1          0.594              1.983              5.550
 Vibration     2          0.595              1.980              5.160
 Vibration     3          0.596              1.974              4.487
 Vibration     4          0.600              1.961              3.809
 Vibration     5          0.603              1.952              3.523
 Vibration     6          0.608              1.937              3.189
 Vibration     7          0.615              1.914              2.815
 Vibration     8          0.630              1.866              2.318
 Vibration     9          0.645              1.818              2.001
 Vibration    10          0.647              1.811              1.962
 Vibration    11          0.665              1.755              1.698
 Vibration    12          0.676              1.722              1.573
 Vibration    13          0.687              1.690              1.465
 Vibration    14          0.695              1.667              1.396
 Vibration    15          0.706              1.636              1.312
 Vibration    16          0.711              1.620              1.270
 Vibration    17          0.745              1.525              1.063
 Vibration    18          0.772              1.455              0.937
 Vibration    19          0.783              1.427              0.892
 Vibration    20          0.788              1.412              0.870
 Vibration    21          0.802              1.379              0.821
 Vibration    22          0.817              1.341              0.768
 Vibration    23          0.847              1.269              0.679
 Vibration    24          0.853              1.257              0.666
 Vibration    25          0.900              1.150              0.554
 Vibration    26          0.928              1.091              0.500
 Vibration    27          0.979              0.991              0.417

 Optimization completed.
    -- Stationary point found.
 Normal termination of Gaussian 16 at Mon Sep 28 08:28:12 2020.

 ----------------------------------------------------------------------
 #p b3lyp/6-31G(d) scrf=(iefpcm,read,solvent=water) geom=allcheck guess
 =read
 ----------------------------------------------------------------------

 Structure from the checkpoint file:  "SM43_m3.b.1.pdb.xyz.mst.b.w.chk"
 -------------------
 SM43_m3.b.1.pdb.xyz
 -------------------
 Charge =  2 Multiplicity = 1

 SCF Done:  E(RB3LYP) =  -1215.87041604     A.U. after    8 cycles
 Normal termination of Gaussian 16 at Mon Sep 28 08:28:56 2020.

 -----------------------------
 #p B3LYP/6-31G* geom=allcheck
 -----------------------------

 Structure from the checkpoint file:  "SM43_m3.b.1.pdb.xyz.mst.b.w.chk"
 -------------------
 SM43_m3.b.1.pdb.xyz
 -------------------
 Charge =  2 Multiplicity = 1

 SCF Done:  E(RB3LYP) =  -1215.57118778     A.U. after   16 cycles
 Normal termination of Gaussian 16 at Mon Sep 28 08:29:45 2020.
 Gaussian 16:  ES64L-G16RevB.01 20-Dec-2017

 ----------------------------------------------------------------------
 #p mp2/aug-cc-pVDZ scf=(MaxCycle=2000,NoVarAcc,NoIncFock) maxdisk=120G
 B geom=allcheck
 ----------------------------------------------------------------------

 Structure from the checkpoint file:  "SM43_m3.b.1.pdb.xyz.mst.b.w.chk"
 -------------------
 SM43_m3.b.1.pdb.xyz
 -------------------
 Charge =  2 Multiplicity = 1

                         Standard orientation:
 ---------------------------------------------------------------------
 Center     Atomic      Atomic             Coordinates (Angstroms)
 Number     Number       Type             X           Y           Z
 ---------------------------------------------------------------------
      1          8           0       -2.676407    0.842389   -1.566772
      2         16           0       -2.989319   -0.311653   -0.753878
      3          7           0       -1.642076   -0.770904    0.122539
      4          6           0       -0.376041   -0.226021    0.017086
      5          7           0       -0.102038    1.054226   -0.206767
      6          8           0        1.248979    1.247538   -0.201521
      7          6           0        1.817429    0.036208    0.030115
      8          6           0        3.263349   -0.026114    0.063648
      9          6           0        4.038446    1.133478   -0.108980
     10          6           0        5.425516    1.046092   -0.071072
     11          6           0        6.045686   -0.188974    0.136612
     12          6           0        5.276566   -1.343390    0.308342
     13          6           0        3.889399   -1.267137    0.273311
     14          6           0        0.834472   -0.916591    0.173049
     15          7           0       -4.079601    0.335299    0.591457
     16          6           0       -4.357460   -0.709798    1.634268
     17          6           0       -3.572836    1.623943    1.163571
     18          8           0       -3.676757   -1.498141   -1.209447
     19          1           0       -1.657642   -1.764085    0.378813
     20          1           0        3.554360    2.089047   -0.269285
     21          1           0        6.023294    1.940564   -0.203232
     22          1           0        7.127823   -0.252071    0.164653
     23          1           0        5.757930   -2.301222    0.468382
     24          1           0        3.293097   -2.162333    0.405665
     25          1           0        0.951720   -1.972015    0.348826
     26          1           0       -4.712620   -1.609869    1.138977
     27          1           0       -5.131318   -0.305677    2.283881
     28          1           0       -3.445874   -0.892605    2.198964
     29          1           0       -3.379837    2.315643    0.348087
     30          1           0       -2.673213    1.423948    1.741626
     31          1           0       -4.358661    2.010804    1.809934
     32          1           0       -4.966095    0.526004    0.084507
     33          1           0       -0.661534    1.905509   -0.286137
 ---------------------------------------------------------------------

 SCF Done:  E(RHF) =  -1210.11159900     A.U. after   17 cycles
 E2 =    -0.2767269144D+01 EUMP2 =    -0.12128788681469D+04

 The electronic state is 1-A.
 Alpha  occ. eigenvalues --  -92.58827 -20.97021 -20.90260 -20.89657 -16.02162
 Alpha  occ. eigenvalues --  -15.98617 -15.97155 -11.69181 -11.63776 -11.58786
 Alpha  occ. eigenvalues --  -11.58233 -11.53234 -11.48724 -11.47758 -11.47412
 Alpha  occ. eigenvalues --  -11.46280 -11.44874 -11.44783  -9.55186  -7.23711
 Alpha  occ. eigenvalues --   -7.23676  -7.23642  -1.83279  -1.80968  -1.68636
 Alpha  occ. eigenvalues --   -1.62091  -1.61361  -1.49996  -1.41419  -1.37135
 Alpha  occ. eigenvalues --   -1.29968  -1.27173  -1.25943  -1.23910  -1.21819
 Alpha  occ. eigenvalues --   -1.17119  -1.13937  -1.10192  -1.07482  -1.05180
 Alpha  occ. eigenvalues --   -1.04698  -1.03397  -1.01256  -0.99704  -0.98850
 Alpha  occ. eigenvalues --   -0.96966  -0.95045  -0.93954  -0.91906  -0.90260
 Alpha  occ. eigenvalues --   -0.88807  -0.88209  -0.88090  -0.87149  -0.86096
 Alpha  occ. eigenvalues --   -0.85627  -0.84089  -0.83467  -0.82506  -0.81238
 Alpha  occ. eigenvalues --   -0.80513  -0.80339  -0.79266  -0.75476  -0.72442
 Alpha  occ. eigenvalues --   -0.72330  -0.71006  -0.67295  -0.55286  -0.55057
 Alpha virt. eigenvalues --   -0.20873  -0.18370  -0.16725  -0.16483  -0.15362
 Alpha virt. eigenvalues --   -0.14391  -0.13695  -0.13091  -0.12652  -0.12277
 Alpha virt. eigenvalues --   -0.11509  -0.11282  -0.10734  -0.10177  -0.09459

 Mulliken charges:
               1
     1  O   -0.983144
     2  S    3.017628
     3  N   -0.919628
     4  C   -0.120843
     5  N   -0.001648
     6  O   -1.064863
     7  C   -0.236424
     8  C    1.645086
     9  C    0.375554
    10  C    0.267838
    11  C    0.541379
    12  C    0.109051
    13  C    0.632097
    14  C    2.029382
    15  N   -0.674791
    16  C    0.825578
    17  C    0.900222
    18  O   -0.958910
    19  H    0.003917
    20  H   -0.653728
    21  H   -0.413946
    22  H   -0.392265
    23  H   -0.451594
    24  H   -0.571847
    25  H   -0.570303
    26  H   -0.083168
    27  H   -0.093449
    28  H   -0.073562
    29  H   -0.140789
    30  H   -0.063389
    31  H   -0.125369
    32  H    0.190243
    33  H    0.055685
 Sum of Mulliken charges =   2.00000

 Dipole moment (field-independent basis, Debye):
    X=             -9.2058    Y=              0.8829    Z=              6.2686  Tot=             11.1724
 Quadrupole moment (field-independent basis, Debye-Ang):
   XX=             42.0460   YY=            -84.0465   ZZ=           -106.8721
   XY=            -10.5392   XZ=            -22.9758   YZ=             -2.5461

 Normal termination of Gaussian 16 at Mon Sep 28 09:08:52 2020.
