 Gaussian 16, Revision B.01,

 ----------------------------------------------------------------------
 #p b3lyp/6-31G(d) opt freq NoSymm scf=(MaxCycle=2000,NoVarAcc,NoIncFoc
 k) scrf=(iefpcm,read,solvent=water)
 ----------------------------------------------------------------------

 -------------------
 SM43_m3.b.3.pdb.xyz
 -------------------
 Symbolic Z-matrix:
 Charge =  2 Multiplicity = 1

 SCF Done:  E(RB3LYP) =  -1215.87234849     A.U. after   13 cycles
 SCF Done:  E(RB3LYP) =  -1215.87226228     A.U. after    9 cycles
 SCF Done:  E(RB3LYP) =  -1215.87226824     A.U. after    8 cycles
 SCF Done:  E(RB3LYP) =  -1215.87234633     A.U. after    9 cycles
 SCF Done:  E(RB3LYP) =  -1215.87234551     A.U. after    6 cycles
 SCF Done:  E(RB3LYP) =  -1215.87234520     A.U. after    5 cycles
 SCF Done:  E(RB3LYP) =  -1215.87234510     A.U. after    4 cycles
 SCF Done:  E(RB3LYP) =  -1215.87234506     A.U. after    4 cycles
 SCF Done:  E(RB3LYP) =  -1215.87234505     A.U. after    2 cycles
 SCF Done:  E(RB3LYP) =  -1215.87234504     A.U. after    3 cycles
 SCF Done:  E(RB3LYP) =  -1215.87228341     A.U. after    3 cycles
 SCF Done:  E(RB3LYP) =  -1215.87228341     A.U. after    2 cycles
 SCF Done:  E(RB3LYP) =  -1215.87224224     A.U. after    9 cycles
 SCF Done:  E(RB3LYP) =  -1215.87225565     A.U. after    7 cycles
 SCF Done:  E(RB3LYP) =  -1215.87225464     A.U. after    7 cycles
 SCF Done:  E(RB3LYP) =  -1215.87225466     A.U. after    7 cycles
 Optimization completed.
    -- Stationary point found.
 Normal termination of Gaussian 16 at Mon Sep 28 09:15:19 2020.

 --------------------------------------------------------------------
 #P Geom=AllCheck Guess=TCheck SCRF=Check GenChk RB3LYP/6-31G(d) Freq
 --------------------------------------------------------------------

 Structure from the checkpoint file:  "SM43_m3.b.3.pdb.xyz.mst.b.w.chk"
 -------------------
 SM43_m3.b.3.pdb.xyz
 -------------------
 Charge =  2 Multiplicity = 1

 SCF Done:  E(RB3LYP) =  -1215.87225466     A.U. after    1 cycles

  Exact polarizability: 351.413   1.802 191.965   3.849 -39.387 129.888
 Approx polarizability: 357.236  11.371 239.456   5.044 -53.546 154.635

                      1                      2                      3
                      A                      A                      A
 Frequencies --     31.8328                40.6944                59.4860
 Red. masses --      5.2486                 3.9917                 4.0504
 Frc consts  --      0.0031                 0.0039                 0.0084
 IR Inten    --      4.6734                 2.3317                 4.1130

                      4                      5                      6
                      A                      A                      A
 Frequencies --     69.2967                90.9774               101.7574
 Red. masses --      3.5529                 4.7030                 5.3664
 Frc consts  --      0.0101                 0.0229                 0.0327
 IR Inten    --      3.3774                 3.7220                 1.8056

                      7                      8                      9
                      A                      A                      A
 Frequencies --    143.6576               161.2280               183.7316
 Red. masses --      1.2939                 4.5707                 4.8781
 Frc consts  --      0.0157                 0.0700                 0.0970
 IR Inten    --      0.9266                 4.0278                 5.0271

                     10                     11                     12
                      A                      A                      A
 Frequencies --    218.4350               232.8829               249.4759
 Red. masses --      3.6430                 5.7361                 2.9662
 Frc consts  --      0.1024                 0.1833                 0.1088
 IR Inten    --      1.4583                 2.6918                 6.4277

                     13                     14                     15
                      A                      A                      A
 Frequencies --    272.2071               285.9363               298.9192
 Red. masses --      1.4762                 2.5991                 4.7920
 Frc consts  --      0.0644                 0.1252                 0.2523
 IR Inten    --     10.6262                47.4090                 4.8126

                     16                     17                     18
                      A                      A                      A
 Frequencies --    308.2130               366.3294               401.3605
 Red. masses --      4.2807                 4.7263                 4.7512
 Frc consts  --      0.2396                 0.3737                 0.4509
 IR Inten    --      2.4538                15.5191                 5.7700

                     19                     20                     21
                      A                      A                      A
 Frequencies --    408.4732               411.4527               431.0818
 Red. masses --      2.9378                 2.0557                 3.3005
 Frc consts  --      0.2888                 0.2050                 0.3614
 IR Inten    --      0.2251                73.6325                95.8646

                     22                     23                     24
                      A                      A                      A
 Frequencies --    462.3522               488.0413               494.9470
 Red. masses --      5.4046                 2.1901                 1.3692
 Frc consts  --      0.6807                 0.3073                 0.1976
 IR Inten    --     20.9445                70.6365               125.7673

                     25                     26                     27
                      A                      A                      A
 Frequencies --    504.6552               579.2436               593.8921
 Red. masses --      4.1688                 5.7945                 7.1686
 Frc consts  --      0.6255                 1.1455                 1.4897
 IR Inten    --     19.2243                82.4851               331.9109

                     28                     29                     30
                      A                      A                      A
 Frequencies --    628.7303               651.9242               697.6704
 Red. masses --      6.4509                 5.4546                 5.8954
 Frc consts  --      1.5024                 1.3659                 1.6907
 IR Inten    --      0.6594                13.6658                36.7534

                     31                     32                     33
                      A                      A                      A
 Frequencies --    698.5606               704.9105               774.6936
 Red. masses --      1.9952                 2.7470                 6.5647
 Frc consts  --      0.5736                 0.8042                 2.3213
 IR Inten    --     34.7720                 7.1582                32.5948

                     34                     35                     36
                      A                      A                      A
 Frequencies --    786.3325               820.7963               857.4646
 Red. masses --      1.5520                 1.8053                 3.8079
 Frc consts  --      0.5654                 0.7166                 1.6496
 IR Inten    --     94.2776                28.7246               166.6733

                     37                     38                     39
                      A                      A                      A
 Frequencies --    863.4573               879.1592               952.8629
 Red. masses --      1.2548                 5.9911                 7.4926
 Frc consts  --      0.5512                 2.7283                 4.0082
 IR Inten    --      0.2856               285.7064                36.3765

                     40                     41                     42
                      A                      A                      A
 Frequencies --    958.6588               991.8351               997.1178
 Red. masses --      1.3703                 1.3582                 2.7839
 Frc consts  --      0.7420                 0.7872                 1.6308
 IR Inten    --      2.7737                 0.0151                31.2585

                     43                     44                     45
                      A                      A                      A
 Frequencies --   1017.1670              1023.4850              1043.6417
 Red. masses --      5.9920                 1.2962                 4.0941
 Frc consts  --      3.6526                 0.8000                 2.6273
 IR Inten    --      7.2410                 0.0112                40.5913

                     46                     47                     48
                      A                      A                      A
 Frequencies --   1061.9646              1077.1123              1080.6250
 Red. masses --      3.1652                 1.1390                 2.0554
 Frc consts  --      2.1031                 0.7786                 1.4141
 IR Inten    --     28.3994                16.8109                65.4132

                     49                     50                     51
                      A                      A                      A
 Frequencies --   1117.5938              1143.2361              1151.3062
 Red. masses --      1.5870                 3.9093                 1.6605
 Frc consts  --      1.1679                 3.0104                 1.2968
 IR Inten    --     14.2324               269.1144                 8.2520

                     52                     53                     54
                      A                      A                      A
 Frequencies --   1168.8537              1182.0127              1194.9196
 Red. masses --      2.9485                 2.5561                 1.0927
 Frc consts  --      2.3734                 2.1042                 0.9192
 IR Inten    --    132.5407                94.9212                 0.5298

                     55                     56                     57
                      A                      A                      A
 Frequencies --   1210.8029              1237.5293              1252.9225
 Red. masses --      1.1534                 1.6945                 1.6037
 Frc consts  --      0.9963                 1.5290                 1.4833
 IR Inten    --     46.1069                97.7924                 1.9300

                     58                     59                     60
                      A                      A                      A
 Frequencies --   1291.2347              1352.7760              1376.4728
 Red. masses --      4.2857                 2.4447                 2.1980
 Frc consts  --      4.2100                 2.6359                 2.4537
 IR Inten    --     21.5203                36.6682                15.8262

                     61                     62                     63
                      A                      A                      A
 Frequencies --   1385.3315              1403.1755              1435.9837
 Red. masses --      3.8146                 1.7747                 1.3555
 Frc consts  --      4.3132                 2.0587                 1.6468
 IR Inten    --    157.3423                58.3757                24.8762

                     64                     65                     66
                      A                      A                      A
 Frequencies --   1445.2769              1456.2360              1462.2456
 Red. masses --      1.1320                 1.2734                 1.5628
 Frc consts  --      1.3932                 1.5910                 1.9688
 IR Inten    --     24.3408                 4.7068                82.8059

                     67                     68                     69
                      A                      A                      A
 Frequencies --   1464.1162              1497.9508              1500.4355
 Red. masses --      1.2407                 2.2993                 1.0625
 Frc consts  --      1.5670                 3.0398                 1.4094
 IR Inten    --     26.5428                50.6540                40.1531

                     70                     71                     72
                      A                      A                      A
 Frequencies --   1504.7156              1512.7151              1527.4797
 Red. masses --      1.0472                 1.0411                 2.1614
 Frc consts  --      1.3970                 1.4037                 2.9713
 IR Inten    --      5.4555                29.3614               731.9806

                     73                     74                     75
                      A                      A                      A
 Frequencies --   1528.8842              1548.8210              1603.3826
 Red. masses --      1.0712                 2.3258                 4.6654
 Frc consts  --      1.4753                 3.2872                 7.0667
 IR Inten    --     78.1930               702.6816                 3.9760

                     76                     77                     78
                      A                      A                      A
 Frequencies --   1640.0385              1654.1086              1661.1705
 Red. masses --      5.2150                 5.3746                 5.4208
 Frc consts  --      8.2645                 8.6641                 8.8134
 IR Inten    --     86.8631               810.9203                20.3399

                     79                     80                     81
                      A                      A                      A
 Frequencies --   3127.7309              3132.6322              3217.9824
 Red. masses --      1.0297                 1.0296                 1.0867
 Frc consts  --      5.9349                 5.9529                 6.6302
 IR Inten    --      2.2042                 2.6411                 0.3971

                     82                     83                     84
                      A                      A                      A
 Frequencies --   3223.4096              3226.4999              3230.4871
 Red. masses --      1.1090                 1.0887                 1.1095
 Frc consts  --      6.7891                 6.6777                 6.8219
 IR Inten    --      0.9347                 4.3799                 2.3808

                     85                     86                     87
                      A                      A                      A
 Frequencies --   3232.8190              3240.0454              3240.8459
 Red. masses --      1.0923                 1.1107                 1.0951
 Frc consts  --      6.7261                 6.8699                 6.7769
 IR Inten    --     26.6460                 1.2134                27.9026

                     88                     89                     90
                      A                      A                      A
 Frequencies --   3245.2927              3247.6324              3340.2461
 Red. masses --      1.0967                 1.1090                 1.0798
 Frc consts  --      6.8055                 6.8917                 7.0982
 IR Inten    --     13.2631                 1.0912               256.9805

                     91                     92                     93
                      A                      A                      A
 Frequencies --   3341.2436              3500.3798              3552.9536
 Red. masses --      1.0996                 1.0792                 1.0867
 Frc consts  --      7.2328                 7.7905                 8.0826
 IR Inten    --     21.7755               448.1161               716.9222

 - Thermochemistry -
 -------------------
 Temperature   298.150 Kelvin.  Pressure   1.00000 Atm.
 Atom     1 has atomic number  8 and mass  15.99491

 Molecular mass:   269.08341 amu.
 Principal axes and moments of inertia in atomic units:
                           1         2         3
     Eigenvalues --  1415.79950********************
           X            0.99963   0.02000   0.01855
           Y           -0.02654   0.86968   0.49290
           Z           -0.00627  -0.49321   0.86989
 This molecule is an asymmetric top.
 Rotational symmetry number  1.
 Warning -- assumption of classical behavior for rotation
           may cause significant error
 Rotational temperatures (Kelvin)      0.06118     0.00689     0.00670
 Rotational constants (GHZ):           1.27472     0.14362     0.13952
 Zero-point vibrational energy     702630.6 (Joules/Mol)
                                  167.93274 (Kcal/Mol)
 Warning -- explicit consideration of  27 degrees of freedom as
           vibrations may cause significant error
 Vibrational temperatures:     45.80    58.55    85.59    99.70   130.90
          (Kelvin)            146.41   206.69   231.97   264.35   314.28
                              335.07   358.94   391.65   411.40   430.08
                              443.45   527.07   577.47   587.70   591.99
                              620.23   665.22   702.18   712.12   726.09
                              833.40   854.48   904.60   937.97  1003.79
                             1005.07  1014.21  1114.61  1131.36  1180.94
                             1233.70  1242.32  1264.91  1370.96  1379.30
                             1427.03  1434.63  1463.48  1472.57  1501.57
                             1527.93  1549.72  1554.78  1607.97  1644.86
                             1656.47  1681.72  1700.65  1719.22  1742.08
                             1780.53  1802.68  1857.80  1946.34  1980.44
                             1993.18  2018.86  2066.06  2079.43  2095.20
                             2103.85  2106.54  2155.22  2158.79  2164.95
                             2176.46  2197.70  2199.72  2228.41  2306.91
                             2359.65  2379.89  2390.05  4500.11  4507.16
                             4629.96  4637.77  4642.21  4647.95  4651.31
                             4661.70  4662.85  4669.25  4672.62  4805.87
                             4807.30  5036.27  5111.91

 Zero-point correction=                           0.267618 (Hartree/Particle)
 Thermal correction to Energy=                    0.284861
 Thermal correction to Enthalpy=                  0.285805
 Thermal correction to Gibbs Free Energy=         0.221678
 Sum of electronic and zero-point Energies=          -1215.604637
 Sum of electronic and thermal Energies=             -1215.587394
 Sum of electronic and thermal Enthalpies=           -1215.586450
 Sum of electronic and thermal Free Energies=        -1215.650576

                     E (Thermal)             CV                S
                      KCal/Mol        Cal/Mol-Kelvin    Cal/Mol-Kelvin
 Total                  178.753             65.362            134.965
 Electronic               0.000              0.000              0.000
 Translational            0.889              2.981             42.669
 Rotational               0.889              2.981             33.797
 Vibrational            176.975             59.401             58.499
 Vibration     1          0.594              1.983              5.712
 Vibration     2          0.594              1.981              5.225
 Vibration     3          0.597              1.974              4.474
 Vibration     4          0.598              1.969              4.173
 Vibration     5          0.602              1.956              3.639
 Vibration     6          0.604              1.948              3.420
 Vibration     7          0.616              1.909              2.755
 Vibration     8          0.622              1.890              2.535
 Vibration     9          0.631              1.862              2.290
 Vibration    10          0.646              1.813              1.972
 Vibration    11          0.654              1.791              1.857
 Vibration    12          0.662              1.764              1.734
 Vibration    13          0.675              1.725              1.582
 Vibration    14          0.684              1.700              1.498
 Vibration    15          0.692              1.676              1.423
 Vibration    16          0.698              1.658              1.372
 Vibration    17          0.739              1.542              1.095
 Vibration    18          0.767              1.467              0.958
 Vibration    19          0.773              1.452              0.932
 Vibration    20          0.775              1.445              0.921
 Vibration    21          0.792              1.403              0.855
 Vibration    22          0.820              1.334              0.759
 Vibration    23          0.844              1.277              0.689
 Vibration    24          0.851              1.261              0.671
 Vibration    25          0.860              1.240              0.647
 Vibration    26          0.936              1.076              0.487
 Vibration    27          0.952              1.045              0.460

                           ! Non-Optimized Parameters !
 Normal termination of Gaussian 16 at Mon Sep 28 09:24:03 2020.

 ----------------------------------------------------------------------
 #p b3lyp/6-31G(d) scrf=(iefpcm,read,solvent=water) geom=allcheck guess
 =read
 ----------------------------------------------------------------------

 Structure from the checkpoint file:  "SM43_m3.b.3.pdb.xyz.mst.b.w.chk"
 -------------------
 SM43_m3.b.3.pdb.xyz
 -------------------
 Charge =  2 Multiplicity = 1

 SCF Done:  E(RB3LYP) =  -1215.87199252     A.U. after    7 cycles
 Normal termination of Gaussian 16 at Mon Sep 28 09:24:42 2020.

 -----------------------------
 #p B3LYP/6-31G* geom=allcheck
 -----------------------------

 Structure from the checkpoint file:  "SM43_m3.b.3.pdb.xyz.mst.b.w.chk"
 -------------------
 SM43_m3.b.3.pdb.xyz
 -------------------
 Charge =  2 Multiplicity = 1

 SCF Done:  E(RB3LYP) =  -1215.57277149     A.U. after   16 cycles

 The electronic state is 1-A.
 Alpha  occ. eigenvalues --  -89.46697 -19.55152 -19.48990 -19.48463 -14.77578
 Alpha  occ. eigenvalues --  -14.75354 -14.73161 -10.61788 -10.56369 -10.52855
 Alpha  occ. eigenvalues --  -10.52148 -10.49278 -10.44547 -10.42569 -10.42206
 Alpha  occ. eigenvalues --  -10.41112 -10.40505 -10.40418  -8.49092  -6.45580
 Alpha  occ. eigenvalues --   -6.45544  -6.45397  -1.48045  -1.46465  -1.35087
 Alpha  occ. eigenvalues --   -1.30555  -1.30051  -1.20764  -1.12972  -1.08148
 Alpha  occ. eigenvalues --   -1.04191  -1.03235  -0.99897  -0.98055  -0.97134
 Alpha  occ. eigenvalues --   -0.95856  -0.92689  -0.91450  -0.89009  -0.84329
 Alpha  occ. eigenvalues --   -0.84040  -0.83331  -0.82144  -0.80171  -0.80015
 Alpha  occ. eigenvalues --   -0.78458  -0.76903  -0.76572  -0.74159  -0.73740
 Alpha  occ. eigenvalues --   -0.71448  -0.70838  -0.70668  -0.70199  -0.69753
 Alpha  occ. eigenvalues --   -0.69454  -0.67285  -0.66594  -0.65335  -0.65092
 Alpha  occ. eigenvalues --   -0.64619  -0.64083  -0.64032  -0.62035  -0.58497
 Alpha  occ. eigenvalues --   -0.57180  -0.56305  -0.56257  -0.47569  -0.47047
 Alpha virt. eigenvalues --   -0.33811  -0.31891  -0.27257  -0.26304  -0.24707
 Alpha virt. eigenvalues --   -0.23631  -0.22235  -0.21611  -0.21538  -0.19544
 Alpha virt. eigenvalues --   -0.18670  -0.17724  -0.17329  -0.14648  -0.14103

 Mulliken charges:
               1
     1  O   -0.454246
     2  S    1.383781
     3  N   -0.823352
     4  C    0.670608
     5  N   -0.320813
     6  O   -0.337366
     7  C    0.419197
     8  C    0.084122
     9  C   -0.144200
    10  C   -0.125228
    11  C   -0.090622
    12  C   -0.129945
    13  C   -0.147363
    14  C   -0.275557
    15  N   -0.612960
    16  C   -0.380784
    17  C   -0.374407
    18  O   -0.406971
    19  H    0.444255
    20  H    0.185348
    21  H    0.204075
    22  H    0.211811
    23  H    0.202193
    24  H    0.164306
    25  H    0.244293
    26  H    0.262839
    27  H    0.261621
    28  H    0.274031
    29  H    0.223123
    30  H    0.280112
    31  H    0.266023
    32  H    0.418889
    33  H    0.423186
 Sum of Mulliken charges =   2.00000

 Dipole moment (field-independent basis, Debye):
    X=              7.2824    Y=              1.2704    Z=              5.8980  Tot=              9.4569
 Quadrupole moment (field-independent basis, Debye-Ang):
   XX=             35.5941   YY=            -82.5557   ZZ=           -100.5488
   XY=             -2.5868   XZ=             23.4037   YZ=             -2.4032

 Normal termination of Gaussian 16 at Mon Sep 28 09:25:22 2020.
 Gaussian 16:  ES64L-G16RevB.01 20-Dec-2017

 ----------------------------------------------------------------------
 #p mp2/aug-cc-pVDZ scf=(MaxCycle=2000,NoVarAcc,NoIncFock) maxdisk=120G
 B geom=allcheck
 ----------------------------------------------------------------------

 Structure from the checkpoint file:  "SM43_m3.b.3.pdb.xyz.mst.b.w.chk"
 -------------------
 SM43_m3.b.3.pdb.xyz
 -------------------
 Charge =  2 Multiplicity = 1

                         Standard orientation:
 ---------------------------------------------------------------------
 Center     Atomic      Atomic             Coordinates (Angstroms)
 Number     Number       Type             X           Y           Z
 ---------------------------------------------------------------------
      1          8           0        2.699756   -1.307966   -1.091515
      2         16           0        2.974274    0.056220   -0.695455
      3          7           0        1.542055    0.843684   -0.422734
      4          6           0        0.299404    0.271720   -0.268366
      5          7           0        0.055217   -1.026595   -0.124551
      6          8           0       -1.288358   -1.233720    0.008895
      7          6           0       -1.881835   -0.014486   -0.060457
      8          6           0       -3.325828    0.023285    0.046598
      9          6           0       -4.066042   -1.165382    0.170054
     10          6           0       -5.451797   -1.107302    0.266533
     11          6           0       -6.105688    0.127505    0.241419
     12          6           0       -5.371437    1.310600    0.119782
     13          6           0       -3.985906    1.263695    0.022387
     14          6           0       -0.924251    0.958802   -0.231435
     15          7           0        3.651885   -0.099278    1.020917
     16          6           0        4.802095   -1.069480    1.018277
     17          6           0        4.005858    1.236876    1.602904
     18          8           0        3.876381    0.960744   -1.367767
     19          1           0        1.573889    1.860149   -0.548291
     20          1           0       -3.556116   -2.120776    0.187327
     21          1           0       -6.021997   -2.024407    0.360182
     22          1           0       -7.186661    0.167987    0.316406
     23          1           0       -5.878815    2.268155    0.100802
     24          1           0       -3.417965    2.181915   -0.070511
     25          1           0       -1.063934    2.021812   -0.326860
     26          1           0        4.463909   -2.001162    0.572202
     27          1           0        5.080025   -1.225565    2.058886
     28          1           0        5.629059   -0.636780    0.459249
     29          1           0        3.107986    1.846227    1.669827
     30          1           0        4.757554    1.704948    0.972315
     31          1           0        4.400929    1.052523    2.600125
     32          1           0        2.882484   -0.515541    1.577916
     33          1           0        0.627493   -1.871162   -0.080781
 ---------------------------------------------------------------------

 SCF Done:  E(RHF) =  -1210.11509701     A.U. after   17 cycles
