 Gaussian 16, Revision B.01,

 ----------------------------------------------------------------------
 #p b3lyp/6-31G(d) opt freq NoSymm scf=(MaxCycle=2000,NoVarAcc,NoIncFoc
 k) scrf=(iefpcm,read,solvent=water)
 ----------------------------------------------------------------------

 -------------------
 SM43_m2.b.8.pdb.xyz
 -------------------
 Symbolic Z-matrix:
 Charge =  1 Multiplicity = 1

 SCF Done:  E(RB3LYP) =  -1215.44185114     A.U. after   13 cycles
 SCF Done:  E(RB3LYP) =  -1215.44168589     A.U. after   10 cycles
 SCF Done:  E(RB3LYP) =  -1215.44175804     A.U. after   10 cycles
 SCF Done:  E(RB3LYP) =  -1215.44186876     A.U. after   10 cycles
 SCF Done:  E(RB3LYP) =  -1215.44176033     A.U. after   10 cycles
 SCF Done:  E(RB3LYP) =  -1215.44174939     A.U. after    9 cycles
 SCF Done:  E(RB3LYP) =  -1215.44186126     A.U. after   10 cycles
 SCF Done:  E(RB3LYP) =  -1215.44186845     A.U. after    9 cycles
 SCF Done:  E(RB3LYP) =  -1215.44186876     A.U. after    8 cycles
 SCF Done:  E(RB3LYP) =  -1215.44165690     A.U. after   10 cycles
 SCF Done:  E(RB3LYP) =  -1215.44186853     A.U. after    9 cycles
 SCF Done:  E(RB3LYP) =  -1215.44176515     A.U. after   10 cycles
 SCF Done:  E(RB3LYP) =  -1215.44176565     A.U. after    7 cycles
 SCF Done:  E(RB3LYP) =  -1215.44186111     A.U. after   10 cycles
 SCF Done:  E(RB3LYP) =  -1215.44186845     A.U. after    9 cycles
 SCF Done:  E(RB3LYP) =  -1215.44176538     A.U. after   10 cycles
 Optimization completed.
    -- Stationary point found.
 Normal termination of Gaussian 16 at Thu Sep 24 07:49:28 2020.

 --------------------------------------------------------------------
 #P Geom=AllCheck Guess=TCheck SCRF=Check GenChk RB3LYP/6-31G(d) Freq
 --------------------------------------------------------------------

 Structure from the checkpoint file:  "SM43_m2.b.8.pdb.xyz.mst.b.w.chk"
 -------------------
 SM43_m2.b.8.pdb.xyz
 -------------------
 Charge =  1 Multiplicity = 1

 SCF Done:  E(RB3LYP) =  -1215.44176538     A.U. after    1 cycles

  Exact polarizability: 325.758   3.508 216.553 -12.020  -9.716 113.705
 Approx polarizability: 338.914   8.608 269.759 -15.035 -16.097 136.839

                      1                      2                      3
                      A                      A                      A
 Frequencies --     24.2912                33.3428                47.6348
 Red. masses --      4.4002                 6.0753                 5.4060
 Frc consts  --      0.0015                 0.0040                 0.0072
 IR Inten    --      5.5431                 4.9818                 8.8624

                      4                      5                      6
                      A                      A                      A
 Frequencies --     76.9805                84.5783               105.7604
 Red. masses --      4.3961                 3.4602                 4.5012
 Frc consts  --      0.0153                 0.0146                 0.0297
 IR Inten    --      4.5935                 2.9680                 7.2789

                      7                      8                      9
                      A                      A                      A
 Frequencies --    124.2612               180.1324               208.3042
 Red. masses --      7.0314                 3.4202                 1.5032
 Frc consts  --      0.0640                 0.0654                 0.0384
 IR Inten    --      3.4265                 0.6137                 1.6858

                     10                     11                     12
                      A                      A                      A
 Frequencies --    215.8619               226.5616               252.5292
 Red. masses --      1.7485                 4.8401                 1.4405
 Frc consts  --      0.0480                 0.1464                 0.0541
 IR Inten    --      2.5338                 0.0063                 2.1965

                     13                     14                     15
                      A                      A                      A
 Frequencies --    264.4159               303.3029               311.2428
 Red. masses --      4.3717                 3.9629                 6.0750
 Frc consts  --      0.1801                 0.2148                 0.3467
 IR Inten    --      8.3806                12.5834                15.6247

                     16                     17                     18
                      A                      A                      A
 Frequencies --    367.1831               379.6299               391.3035
 Red. masses --      3.0837                 6.4796                 2.0859
 Frc consts  --      0.2450                 0.5502                 0.1882
 IR Inten    --     36.9052                13.5528                85.1906

                     19                     20                     21
                      A                      A                      A
 Frequencies --    411.9062               424.0295               435.3302
 Red. masses --      2.9430                 6.6674                 3.0396
 Frc consts  --      0.2942                 0.7063                 0.3394
 IR Inten    --      0.0161                 7.7585                48.0225

                     22                     23                     24
                      A                      A                      A
 Frequencies --    464.6255               487.5311               502.0839
 Red. masses --      3.1296                 4.5192                 4.3533
 Frc consts  --      0.3981                 0.6329                 0.6466
 IR Inten    --     81.2041                 2.5148                 7.0907

                     25                     26                     27
                      A                      A                      A
 Frequencies --    544.2982               593.1133               630.3395
 Red. masses --      8.5616                 5.4298                 6.4492
 Frc consts  --      1.4944                 1.1254                 1.5098
 IR Inten    --     97.7035               272.7999                 0.0249

                     28                     29                     30
                      A                      A                      A
 Frequencies --    659.4557               692.5306               703.4479
 Red. masses --      8.0930                 4.8389                 1.7756
 Frc consts  --      2.0736                 1.3673                 0.5177
 IR Inten    --     25.4944                13.3168                38.8826

                     31                     32                     33
                      A                      A                      A
 Frequencies --    706.6764               781.1040               795.2541
 Red. masses --      4.6576                 1.4855                 3.4924
 Frc consts  --      1.3704                 0.5340                 1.3013
 IR Inten    --     46.0308                92.4268                18.3604

                     34                     35                     36
                      A                      A                      A
 Frequencies --    819.6049               862.9067               870.3432
 Red. masses --      2.4176                 1.2542                 3.5928
 Frc consts  --      0.9568                 0.5502                 1.6035
 IR Inten    --     15.3027                 0.1426                29.7625

                     37                     38                     39
                      A                      A                      A
 Frequencies --    901.5599               946.3311               963.9820
 Red. masses --      5.6613                 1.3897                 8.8109
 Frc consts  --      2.7112                 0.7332                 4.8240
 IR Inten    --    166.5421                 3.0194                10.7291

                     40                     41                     42
                      A                      A                      A
 Frequencies --    985.6362               989.7641              1007.6789
 Red. masses --      1.3553                11.2392                 2.4930
 Frc consts  --      0.7757                 6.4871                 1.4915
 IR Inten    --      0.0229                70.3136                21.8450

                     43                     44                     45
                      A                      A                      A
 Frequencies --   1015.3252              1017.1411              1044.6015
 Red. masses --      1.2753                 6.0805                 2.4143
 Frc consts  --      0.7746                 3.7064                 1.5522
 IR Inten    --      0.0631                 2.1612                 4.3679

                     46                     47                     48
                      A                      A                      A
 Frequencies --   1066.6062              1085.4947              1087.2836
 Red. masses --      2.0852                 1.2006                 3.6196
 Frc consts  --      1.3977                 0.8335                 2.5211
 IR Inten    --     27.4350                14.1991                27.5864

                     49                     50                     51
                      A                      A                      A
 Frequencies --   1110.2170              1146.9368              1159.9845
 Red. masses --      1.5699                 8.8361                 1.7865
 Frc consts  --      1.1401                 6.8484                 1.4163
 IR Inten    --     11.9733               281.2956                20.3082

                     52                     53                     54
                      A                      A                      A
 Frequencies --   1175.0026              1189.1793              1197.1319
 Red. masses --      1.3312                 1.1813                 1.3958
 Frc consts  --      1.0829                 0.9843                 1.1786
 IR Inten    --     42.9201                 9.4745                35.3712

                     55                     56                     57
                      A                      A                      A
 Frequencies --   1212.9628              1254.5365              1288.6116
 Red. masses --      1.4177                 1.6261                 4.7988
 Frc consts  --      1.2289                 1.5079                 4.6949
 IR Inten    --      8.3992                 4.4307                 7.5765

                     58                     59                     60
                      A                      A                      A
 Frequencies --   1340.4986              1363.9576              1368.9751
 Red. masses --      2.2696                 4.2912                 2.0137
 Frc consts  --      2.4029                 4.7036                 2.2235
 IR Inten    --     65.8280                94.8965                 3.3147

                     61                     62                     63
                      A                      A                      A
 Frequencies --   1397.6888              1412.8956              1439.0491
 Red. masses --      1.4934                 1.8435                 1.2532
 Frc consts  --      1.7189                 2.1683                 1.5290
 IR Inten    --     29.2125               138.2482                70.1626

                     64                     65                     66
                      A                      A                      A
 Frequencies --   1460.1443              1472.6789              1489.7863
 Red. masses --      1.1667                 1.1441                 2.6152
 Frc consts  --      1.4656                 1.4619                 3.4198
 IR Inten    --     12.8083                12.9757                72.5583

                     67                     68                     69
                      A                      A                      A
 Frequencies --   1506.0062              1509.2889              1511.8998
 Red. masses --      1.0612                 2.1627                 1.2090
 Frc consts  --      1.4181                 2.9027                 1.6283
 IR Inten    --     22.9180               265.0830                26.2100

                     70                     71                     72
                      A                      A                      A
 Frequencies --   1516.1217              1519.4306              1529.4258
 Red. masses --      1.2074                 2.3465                 1.0555
 Frc consts  --      1.6353                 3.1918                 1.4546
 IR Inten    --     27.7261               400.0739                84.7037

                     73                     74                     75
                      A                      A                      A
 Frequencies --   1553.6453              1626.0617              1649.3574
 Red. masses --      3.3400                 5.7429                 6.6233
 Frc consts  --      4.7500                 8.9465                10.6159
 IR Inten    --     12.4737               122.6065                73.6380

                     76                     77                     78
                      A                      A                      A
 Frequencies --   1664.5129              3123.6718              3127.4689
 Red. masses --      5.8452                 1.0301                 1.0301
 Frc consts  --      9.5417                 5.9220                 5.9364
 IR Inten    --     45.4692                 7.5513                 5.4847

                     79                     80                     81
                      A                      A                      A
 Frequencies --   3210.7021              3216.7447              3220.8240
 Red. masses --      1.0860                 1.0886                 1.1089
 Frc consts  --      6.5960                 6.6365                 6.7778
 IR Inten    --      1.3381                 3.9053                 1.4711

                     82                     83                     84
                      A                      A                      A
 Frequencies --   3222.7166              3224.2812              3232.6283
 Red. masses --      1.1084                 1.0926                 1.0960
 Frc consts  --      6.7825                 6.6921                 6.7478
 IR Inten    --      0.5547                35.7791                39.0985

                     85                     86                     87
                      A                      A                      A
 Frequencies --   3237.8903              3239.5388              3240.6920
 Red. masses --      1.1106                 1.1091                 1.0951
 Frc consts  --      6.8600                 6.8578                 6.7762
 IR Inten    --      1.5098                 2.3272                12.6537

                     88                     89                     90
                      A                      A                      A
 Frequencies --   3323.3104              3371.3959              3482.2838
 Red. masses --      1.0996                 1.0788                 1.0781
 Frc consts  --      7.1554                 7.2245                 7.7023
 IR Inten    --      5.2109               325.3072               331.8148

 - Thermochemistry -
 -------------------
 Temperature   298.150 Kelvin.  Pressure   1.00000 Atm.
 Atom     1 has atomic number  8 and mass  15.99491

 Molecular mass:   268.07559 amu.
 Principal axes and moments of inertia in atomic units:
                           1         2         3
     Eigenvalues --  1508.59357********************
           X            0.99988  -0.01530  -0.00262
           Y            0.01491   0.99352  -0.11269
           Z            0.00433   0.11264   0.99363
 This molecule is an asymmetric top.
 Rotational symmetry number  1.
 Warning -- assumption of classical behavior for rotation
           may cause significant error
 Rotational temperatures (Kelvin)      0.05741     0.00743     0.00704
 Rotational constants (GHZ):           1.19631     0.15479     0.14672
 Zero-point vibrational energy     667716.2 (Joules/Mol)
                                  159.58801 (Kcal/Mol)
 Warning -- explicit consideration of  26 degrees of freedom as
           vibrations may cause significant error
 Vibrational temperatures:     34.95    47.97    68.54   110.76   121.69
          (Kelvin)            152.17   178.78   259.17   299.70   310.58
                              325.97   363.33   380.44   436.39   447.81
                              528.29   546.20   563.00   592.64   610.08
                              626.34   668.49   701.45   722.39   783.12
                              853.36   906.92   948.81   996.40  1012.10
                             1016.75  1123.83  1144.19  1179.23  1241.53
                             1252.23  1297.14  1361.56  1386.96  1418.11
                             1424.05  1449.83  1460.83  1463.44  1502.95
                             1534.61  1561.78  1564.36  1597.35  1650.19
                             1668.96  1690.57  1710.96  1722.41  1745.18
                             1805.00  1854.02  1928.68  1962.43  1969.65
                             2010.96  2032.84  2070.47  2100.82  2118.86
                             2143.47  2166.81  2171.53  2175.29  2181.36
                             2186.12  2200.50  2235.35  2339.54  2373.06
                             2394.86  4494.27  4499.73  4619.48  4628.18
                             4634.05  4636.77  4639.02  4651.03  4658.60
                             4660.97  4662.63  4781.50  4850.69  5010.23

 Zero-point correction=                           0.254320 (Hartree/Particle)
 Thermal correction to Energy=                    0.271262
 Thermal correction to Enthalpy=                  0.272206
 Thermal correction to Gibbs Free Energy=         0.208095
 Sum of electronic and zero-point Energies=          -1215.187446
 Sum of electronic and thermal Energies=             -1215.170503
 Sum of electronic and thermal Enthalpies=           -1215.169559
 Sum of electronic and thermal Free Energies=        -1215.233670

                     E (Thermal)             CV                S
                      KCal/Mol        Cal/Mol-Kelvin    Cal/Mol-Kelvin
 Total                  170.219             63.991            134.933
 Electronic               0.000              0.000              0.000
 Translational            0.889              2.981             42.657
 Rotational               0.889              2.981             33.736
 Vibrational            168.442             58.030             58.539
 Vibration     1          0.593              1.985              6.248
 Vibration     2          0.594              1.983              5.620
 Vibration     3          0.595              1.978              4.913
 Vibration     4          0.599              1.965              3.966
 Vibration     5          0.601              1.960              3.782
 Vibration     6          0.605              1.945              3.345
 Vibration     7          0.610              1.929              3.033
 Vibration     8          0.629              1.867              2.327
 Vibration     9          0.642              1.828              2.058
 Vibration    10          0.645              1.817              1.994
 Vibration    11          0.650              1.801              1.906
 Vibration    12          0.664              1.759              1.713
 Vibration    13          0.671              1.738              1.632
 Vibration    14          0.695              1.667              1.399
 Vibration    15          0.700              1.652              1.356
 Vibration    16          0.740              1.540              1.092
 Vibration    17          0.750              1.514              1.041
 Vibration    18          0.759              1.489              0.995
 Vibration    19          0.776              1.444              0.920
 Vibration    20          0.786              1.418              0.878
 Vibration    21          0.796              1.393              0.841
 Vibration    22          0.822              1.329              0.753
 Vibration    23          0.843              1.278              0.690
 Vibration    24          0.857              1.245              0.653
 Vibration    25          0.899              1.152              0.556
 Vibration    26          0.951              1.046              0.462

 Optimization completed on the basis of negligible forces.
    -- Stationary point found.
 Normal termination of Gaussian 16 at Thu Sep 24 07:58:38 2020.

 ----------------------------------------------------------------------
 #p b3lyp/6-31G(d) scrf=(iefpcm,read,solvent=water) geom=allcheck guess
 =read
 ----------------------------------------------------------------------

 Structure from the checkpoint file:  "SM43_m2.b.8.pdb.xyz.mst.b.w.chk"
 -------------------
 SM43_m2.b.8.pdb.xyz
 -------------------
 Charge =  1 Multiplicity = 1

 SCF Done:  E(RB3LYP) =  -1215.44158387     A.U. after    8 cycles
 Normal termination of Gaussian 16 at Thu Sep 24 07:59:17 2020.

 -----------------------------
 #p B3LYP/6-31G* geom=allcheck
 -----------------------------

 Structure from the checkpoint file:  "SM43_m2.b.8.pdb.xyz.mst.b.w.chk"
 -------------------
 SM43_m2.b.8.pdb.xyz
 -------------------
 Charge =  1 Multiplicity = 1

 SCF Done:  E(RB3LYP) =  -1215.34025203     A.U. after   16 cycles
 Normal termination of Gaussian 16 at Thu Sep 24 07:59:58 2020.
 Gaussian 16:  ES64L-G16RevB.01 20-Dec-2017

 ----------------------------------------------------------------------
 #p mp2/aug-cc-pVDZ scf=(MaxCycle=2000,NoVarAcc,NoIncFock) maxdisk=120G
 B geom=allcheck
 ----------------------------------------------------------------------

 Structure from the checkpoint file:  "SM43_m2.b.8.pdb.xyz.mst.b.w.chk"
 -------------------
 SM43_m2.b.8.pdb.xyz
 -------------------
 Charge =  1 Multiplicity = 1

                         Standard orientation:
 ---------------------------------------------------------------------
 Center     Atomic      Atomic             Coordinates (Angstroms)
 Number     Number       Type             X           Y           Z
 ---------------------------------------------------------------------
      1          8           0        2.484576   -0.200087    1.810646
      2         16           0        2.926355   -0.712065    0.529778
      3          7           0        1.694986   -0.813894   -0.546025
      4          6           0        0.410393   -0.268801   -0.347775
      5          7           0        0.263632    1.013460   -0.089839
      6          8           0       -1.110314    1.185883    0.043086
      7          6           0       -1.747938    0.005617   -0.171450
      8          6           0       -3.202158   -0.001133   -0.083484
      9          6           0       -3.907196   -1.202240   -0.266485
     10          6           0       -5.296082   -1.215680   -0.182512
     11          6           0       -5.995251   -0.035333    0.083819
     12          6           0       -5.298353    1.161333    0.266309
     13          6           0       -3.908766    1.182489    0.184142
     14          6           0       -0.816323   -0.966352   -0.421923
     15          7           0        3.966287    0.681578   -0.152651
     16          6           0        4.261834    0.487927   -1.608751
     17          6           0        3.393569    2.027198    0.169564
     18          8           0        3.792221   -1.862638    0.355766
     19          1           0        1.782106   -1.606420   -1.186122
     20          1           0       -3.367713   -2.120167   -0.471501
     21          1           0       -5.833297   -2.147037   -0.324039
     22          1           0       -7.077746   -0.048800    0.148776
     23          1           0       -5.837370    2.079487    0.472842
     24          1           0       -3.366466    2.109638    0.325361
     25          1           0       -0.968347   -2.013938   -0.619874
     26          1           0        4.673528   -0.508849   -1.750267
     27          1           0        4.997316    1.240458   -1.888705
     28          1           0        3.342968    0.619237   -2.175549
     29          1           0        3.309490    2.110896    1.249548
     30          1           0        2.415958    2.126152   -0.297663
     31          1           0        4.087502    2.770955   -0.218040
     32          1           0        4.851816    0.578009    0.373676
 ---------------------------------------------------------------------

 SCF Done:  E(RHF) =  -1209.87393112     A.U. after   16 cycles
 E2 =    -0.2789846669D+01 EUMP2 =    -0.12126637777883D+04

 The electronic state is 1-A.
 Alpha  occ. eigenvalues --  -92.44617 -20.78035 -20.75988 -20.75713 -15.88537
 Alpha  occ. eigenvalues --  -15.81246 -15.75900 -11.47768 -11.46402 -11.45781
 Alpha  occ. eigenvalues --  -11.44772 -11.36822 -11.36099 -11.35214 -11.34798
 Alpha  occ. eigenvalues --  -11.34311 -11.33762 -11.33615  -9.40968  -7.09497
 Alpha  occ. eigenvalues --   -7.09457  -7.09435  -1.66800  -1.62372  -1.54392
 Alpha  occ. eigenvalues --   -1.48300  -1.44865  -1.29372  -1.26264  -1.21077
 Alpha  occ. eigenvalues --   -1.17071  -1.12572  -1.12128  -1.11808  -1.07041
 Alpha  occ. eigenvalues --   -0.98891  -0.97155  -0.93840  -0.92805  -0.91570
 Alpha  occ. eigenvalues --   -0.90588  -0.88035  -0.85660  -0.84001  -0.81235
 Alpha  occ. eigenvalues --   -0.79855  -0.78859  -0.77635  -0.77466  -0.75865
 Alpha  occ. eigenvalues --   -0.75293  -0.73816  -0.72496  -0.72205  -0.71033
 Alpha  occ. eigenvalues --   -0.70595  -0.69147  -0.68638  -0.68189  -0.66687
 Alpha  occ. eigenvalues --   -0.66113  -0.65612  -0.62108  -0.61121  -0.60346
 Alpha  occ. eigenvalues --   -0.59171  -0.54324  -0.51213  -0.43511  -0.41839
 Alpha virt. eigenvalues --   -0.07933  -0.06706  -0.05775  -0.04732  -0.04378
 Alpha virt. eigenvalues --   -0.03565  -0.03091  -0.02957  -0.02135  -0.01854
 Alpha virt. eigenvalues --   -0.01571  -0.01134  -0.00985   0.00091   0.00398

 Mulliken charges:
               1
     1  O   -1.012833
     2  S    2.870654
     3  N   -0.862936
     4  C   -0.269021
     5  N   -0.187086
     6  O   -1.082881
     7  C    0.021673
     8  C    1.539937
     9  C    0.598694
    10  C    0.096214
    11  C    0.540961
    12  C    0.173314
    13  C    0.420045
    14  C    1.704261
    15  N   -0.677253
    16  C    0.797324
    17  C    0.966553
    18  O   -1.010195
    19  H   -0.035326
    20  H   -0.575862
    21  H   -0.472641
    22  H   -0.417531
    23  H   -0.431248
    24  H   -0.653757
    25  H   -0.550762
    26  H   -0.124786
    27  H   -0.132404
    28  H   -0.055157
    29  H   -0.114107
    30  H   -0.073242
    31  H   -0.138285
    32  H    0.147686
 Sum of Mulliken charges =   1.00000

 Dipole moment (field-independent basis, Debye):
    X=              9.2654    Y=              1.2100    Z=             -4.4111  Tot=             10.3330
 Quadrupole moment (field-independent basis, Debye-Ang):
   XX=            -14.8429   YY=            -97.3790   ZZ=           -111.5775
   XY=             19.3620   XZ=            -13.3475   YZ=              5.1855

 Normal termination of Gaussian 16 at Thu Sep 24 08:47:09 2020.
