 Gaussian 16, Revision B.01,

 ----------------------------------------------------------------------
 #p b3lyp/6-31G(d) opt freq NoSymm scf=(MaxCycle=2000,NoVarAcc,NoIncFoc
 k) scrf=(iefpcm,read,solvent=water) MaxDisk=20GB
 ----------------------------------------------------------------------

 -------------------
 SM43_m0.n.2.pdb.xyz
 -------------------
 Symbolic Z-matrix:
 Charge =  0 Multiplicity = 1

 SCF Done:  E(RB3LYP) =  -1215.00816146     A.U. after   13 cycles
 SCF Done:  E(RB3LYP) =  -1215.00816421     A.U. after    9 cycles
 SCF Done:  E(RB3LYP) =  -1215.00815451     A.U. after    8 cycles
 SCF Done:  E(RB3LYP) =  -1215.00814850     A.U. after    8 cycles
 SCF Done:  E(RB3LYP) =  -1215.00816710     A.U. after    9 cycles
 SCF Done:  E(RB3LYP) =  -1215.00814702     A.U. after    9 cycles
 SCF Done:  E(RB3LYP) =  -1215.00814453     A.U. after    8 cycles
 SCF Done:  E(RB3LYP) =  -1215.00816653     A.U. after   10 cycles
 SCF Done:  E(RB3LYP) =  -1215.00814601     A.U. after    9 cycles
 SCF Done:  E(RB3LYP) =  -1215.00816609     A.U. after   10 cycles
 SCF Done:  E(RB3LYP) =  -1215.00815893     A.U. after    9 cycles
 SCF Done:  E(RB3LYP) =  -1215.00816653     A.U. after    9 cycles
 SCF Done:  E(RB3LYP) =  -1215.00814262     A.U. after    9 cycles
 SCF Done:  E(RB3LYP) =  -1215.00814758     A.U. after    8 cycles
 SCF Done:  E(RB3LYP) =  -1215.00816526     A.U. after   10 cycles
 SCF Done:  E(RB3LYP) =  -1215.00814678     A.U. after    9 cycles
 Optimization completed on the basis of negligible forces.
    -- Stationary point found.
 Normal termination of Gaussian 16 at Mon Sep 14 19:36:46 2020.

 --------------------------------------------------------------------
 #P Geom=AllCheck Guess=TCheck SCRF=Check GenChk RB3LYP/6-31G(d) Freq
 --------------------------------------------------------------------

 Structure from the checkpoint file:  "SM43_m0.n.2.pdb.xyz.mst.n.w.chk"
 -------------------
 SM43_m0.n.2.pdb.xyz
 -------------------
 Charge =  0 Multiplicity = 1

 SCF Done:  E(RB3LYP) =  -1215.00814678     A.U. after    1 cycles

  Exact polarizability: 305.780 -22.459 217.808 -22.072 -23.093 127.210
 Approx polarizability: 327.723 -24.892 263.700 -29.962 -35.094 148.659

                      1                      2                      3
                      A                      A                      A
 Frequencies --     24.5622                29.8939                53.0232
 Red. masses --      4.1152                 4.3620                 5.8135
 Frc consts  --      0.0015                 0.0023                 0.0096
 IR Inten    --      2.5069                 1.5204                 8.0220

                      4                      5                      6
                      A                      A                      A
 Frequencies --     61.1011                79.3167                90.1687
 Red. masses --      5.8739                 3.1421                 4.8367
 Frc consts  --      0.0129                 0.0116                 0.0232
 IR Inten    --      3.0896                 0.9924                 0.6290

                      7                      8                      9
                      A                      A                      A
 Frequencies --    138.8438               168.2282               204.0042
 Red. masses --      6.1645                 2.2719                 1.5548
 Frc consts  --      0.0700                 0.0379                 0.0381
 IR Inten    --      9.0622                 2.8810                 0.3080

                     10                     11                     12
                      A                      A                      A
 Frequencies --    213.8676               230.9327               254.8558
 Red. masses --      1.2977                 2.6386                 4.4361
 Frc consts  --      0.0350                 0.0829                 0.1698
 IR Inten    --      0.7710                 3.9591                 4.1575

                     13                     14                     15
                      A                      A                      A
 Frequencies --    265.6992               305.6064               341.0548
 Red. masses --      5.2622                 6.7566                 3.9961
 Frc consts  --      0.2189                 0.3718                 0.2739
 IR Inten    --      6.6729                 7.3727                20.4459

                     16                     17                     18
                      A                      A                      A
 Frequencies --    353.5578               380.4142               406.7718
 Red. masses --      3.4966                 8.9760                 6.5181
 Frc consts  --      0.2575                 0.7653                 0.6354
 IR Inten    --      3.6595                 5.6651                 1.1296

                     19                     20                     21
                      A                      A                      A
 Frequencies --    411.9767               454.9966               476.8165
 Red. masses --      2.9742                 5.8774                 5.8494
 Frc consts  --      0.2974                 0.7169                 0.7835
 IR Inten    --      0.0038                 4.8660                19.1766

                     22                     23                     24
                      A                      A                      A
 Frequencies --    494.6956               500.4820               508.0277
 Red. masses --      5.4611                 3.6718                 1.3878
 Frc consts  --      0.7874                 0.5419                 0.2110
 IR Inten    --     33.9042                11.5799               172.1565

                     25                     26                     27
                      A                      A                      A
 Frequencies --    563.9052               630.9519               664.3581
 Red. masses --      8.9902                 6.4450                 8.0244
 Frc consts  --      1.6844                 1.5117                 2.0867
 IR Inten    --    209.3842                 0.1018                 7.5073

                     28                     29                     30
                      A                      A                      A
 Frequencies --    675.2096               687.2271               705.6116
 Red. masses --      6.6566                 6.3447                 1.8035
 Frc consts  --      1.7880                 1.7655                 0.5291
 IR Inten    --    246.5052                17.4789                36.0583

                     31                     32                     33
                      A                      A                      A
 Frequencies --    711.1501               782.0522               787.7280
 Red. masses --      4.0878                 4.2552                 1.6630
 Frc consts  --      1.2180                 1.5334                 0.6080
 IR Inten    --     13.9121                18.4108                61.7852

                     34                     35                     36
                      A                      A                      A
 Frequencies --    822.7880               865.1883               880.8702
 Red. masses --      1.5759                 1.2530                 5.2406
 Frc consts  --      0.6286                 0.5526                 2.3958
 IR Inten    --     27.0845                 0.1920               188.4817

                     37                     38                     39
                      A                      A                      A
 Frequencies --    937.1536               945.9490               958.5022
 Red. masses --      3.3137                 1.3886                 9.9145
 Frc consts  --      1.7147                 0.7321                 5.3667
 IR Inten    --    182.9509                 2.9507                13.9960

                     40                     41                     42
                      A                      A                      A
 Frequencies --    965.9117               986.3823              1015.5849
 Red. masses --     10.3082                 1.3501                 1.2673
 Frc consts  --      5.6664                 0.7740                 0.7702
 IR Inten    --     47.3811                 0.0410                 0.0592

                     43                     44                     45
                      A                      A                      A
 Frequencies --   1016.7414              1042.0429              1054.7931
 Red. masses --      6.1277                 2.5394                 2.8540
 Frc consts  --      3.7322                 1.6246                 1.8708
 IR Inten    --      0.6381                14.4909                36.4075

                     46                     47                     48
                      A                      A                      A
 Frequencies --   1067.9285              1078.8155              1109.2872
 Red. masses --      1.6045                 2.4932                 1.6296
 Frc consts  --      1.0782                 1.7096                 1.1814
 IR Inten    --     25.9780                13.0351                47.2773

                     49                     50                     51
                      A                      A                      A
 Frequencies --   1113.2154              1129.8670              1173.9113
 Red. masses --      9.1969                 1.2385                 1.3751
 Frc consts  --      6.7151                 0.9315                 1.1165
 IR Inten    --    361.0793                 8.2779                 6.9465

                     52                     53                     54
                      A                      A                      A
 Frequencies --   1188.6200              1203.7746              1216.9904
 Red. masses --      1.0991                 1.1907                 3.0122
 Frc consts  --      0.9149                 1.0166                 2.6285
 IR Inten    --      0.2312                 6.4137                65.4286

                     55                     56                     57
                      A                      A                      A
 Frequencies --   1221.2364              1276.6786              1292.2475
 Red. masses --      2.2775                 1.9649                 4.8971
 Frc consts  --      2.0013                 1.8869                 4.8182
 IR Inten    --      0.5607                42.0102                77.6346

                     58                     59                     60
                      A                      A                      A
 Frequencies --   1300.7807              1354.6809              1369.3777
 Red. masses --      6.6810                 3.5556                 1.8981
 Frc consts  --      6.6604                 3.8445                 2.0971
 IR Inten    --    198.1177                22.8020                 4.0719

                     61                     62                     63
                      A                      A                      A
 Frequencies --   1392.3101              1456.5076              1473.1996
 Red. masses --      1.7117                 1.1406                 1.1456
 Frc consts  --      1.9550                 1.4257                 1.4649
 IR Inten    --    232.3810                 0.8094                 8.5910

                     64                     65                     66
                      A                      A                      A
 Frequencies --   1485.5093              1502.1406              1504.6620
 Red. masses --      3.1338                 1.0479                 3.2927
 Frc consts  --      4.0744                 1.3932                 4.3922
 IR Inten    --    169.9255                 7.1881               295.2564

                     67                     68                     69
                      A                      A                      A
 Frequencies --   1515.9193              1518.8726              1521.3641
 Red. masses --      1.0916                 1.0626                 2.5845
 Frc consts  --      1.4779                 1.4444                 3.5244
 IR Inten    --     43.1410                19.2428                16.8717

                     70                     71                     72
                      A                      A                      A
 Frequencies --   1531.6705              1557.3543              1628.3268
 Red. masses --      1.0495                 3.4511                 5.4957
 Frc consts  --      1.4507                 4.9315                 8.5853
 IR Inten    --     19.1061                76.9573               145.4598

                     73                     74                     75
                      A                      A                      A
 Frequencies --   1651.5437              1665.7035              3057.0818
 Red. masses --      6.4915                 5.9913                 1.0450
 Frc consts  --     10.4322                 9.7942                 5.7543
 IR Inten    --    123.8439                64.2547                66.1995

                     76                     77                     78
                      A                      A                      A
 Frequencies --   3063.8730              3145.2002              3148.3662
 Red. masses --      1.0412                 1.0935                 1.0965
 Frc consts  --      5.7590                 6.3732                 6.4034
 IR Inten    --     66.8927                36.2544                11.9675

                     79                     80                     81
                      A                      A                      A
 Frequencies --   3179.9920              3205.8602              3207.7583
 Red. masses --      1.1051                 1.1019                 1.0859
 Frc consts  --      6.5841                 6.6723                 6.5830
 IR Inten    --     17.4137                 6.2142                 2.2182

                     82                     83                     84
                      A                      A                      A
 Frequencies --   3214.2032              3222.1966              3230.7531
 Red. masses --      1.0885                 1.0928                 1.0958
 Frc consts  --      6.6256                 6.6846                 6.7391
 IR Inten    --      4.9279                38.5162                39.8499

                     85                     86                     87
                      A                      A                      A
 Frequencies --   3239.6573              3331.3419              3540.2767
 Red. masses --      1.0946                 1.0987                 1.0769
 Frc consts  --      6.7688                 7.1840                 7.9527
 IR Inten    --     12.1801                 8.0788               223.3205

 - Thermochemistry -
 -------------------
 Temperature   298.150 Kelvin.  Pressure   1.00000 Atm.
 Atom     1 has atomic number  8 and mass  15.99491

 Molecular mass:   267.06776 amu.
 Principal axes and moments of inertia in atomic units:
                           1         2         3
     Eigenvalues --  1996.80646********************
           X            0.99991  -0.00109   0.01351
           Y            0.00119   0.99997  -0.00733
           Z           -0.01350   0.00734   0.99988
 This molecule is an asymmetric top.
 Rotational symmetry number  1.
 Warning -- assumption of classical behavior for rotation
           may cause significant error
 Rotational temperatures (Kelvin)      0.04338     0.00860     0.00806
 Rotational constants (GHZ):           0.90381     0.17916     0.16791
 Zero-point vibrational energy     630659.6 (Joules/Mol)
                                  150.73127 (Kcal/Mol)
 Warning -- explicit consideration of  25 degrees of freedom as
           vibrations may cause significant error
 Vibrational temperatures:     35.34    43.01    76.29    87.91   114.12
          (Kelvin)            129.73   199.77   242.04   293.52   307.71
                              332.26   366.68   382.28   439.70   490.70
                              508.69   547.33   585.25   592.74   654.64
                              686.03   711.76   720.08   730.94   811.33
                              907.80   955.86   971.48   988.77  1015.22
                             1023.19  1125.20  1133.36  1183.81  1244.81
                             1267.38  1348.36  1361.01  1379.07  1389.73
                             1419.18  1461.20  1462.86  1499.27  1517.61
                             1536.51  1552.17  1596.02  1601.67  1625.63
                             1689.00  1710.16  1731.96  1750.98  1757.09
                             1836.86  1859.26  1871.53  1949.08  1970.23
                             2003.22  2095.59  2119.61  2137.32  2161.25
                             2164.87  2181.07  2185.32  2188.90  2203.73
                             2240.69  2342.80  2376.20  2396.58  4398.46
                             4408.23  4525.24  4529.80  4575.30  4612.52
                             4615.25  4624.52  4636.02  4648.33  4661.14
                             4793.06  5093.67

 Zero-point correction=                           0.240206 (Hartree/Particle)
 Thermal correction to Energy=                    0.256986
 Thermal correction to Enthalpy=                  0.257930
 Thermal correction to Gibbs Free Energy=         0.193810
 Sum of electronic and zero-point Energies=          -1214.767941
 Sum of electronic and thermal Energies=             -1214.751161
 Sum of electronic and thermal Enthalpies=           -1214.750217
 Sum of electronic and thermal Free Energies=        -1214.814337

                     E (Thermal)             CV                S
                      KCal/Mol        Cal/Mol-Kelvin    Cal/Mol-Kelvin
 Total                  161.261             63.141            134.951
 Electronic               0.000              0.000              0.000
 Translational            0.889              2.981             42.646
 Rotational               0.889              2.981             33.735
 Vibrational            159.483             57.180             58.570
 Vibration     1          0.593              1.985              6.226
 Vibration     2          0.594              1.984              5.836
 Vibration     3          0.596              1.976              4.701
 Vibration     4          0.597              1.973              4.421
 Vibration     5          0.600              1.963              3.908
 Vibration     6          0.602              1.956              3.656
 Vibration     7          0.614              1.915              2.820
 Vibration     8          0.625              1.882              2.455
 Vibration     9          0.640              1.834              2.097
 Vibration    10          0.644              1.820              2.010
 Vibration    11          0.653              1.794              1.872
 Vibration    12          0.665              1.755              1.697
 Vibration    13          0.672              1.736              1.624
 Vibration    14          0.696              1.663              1.386
 Vibration    15          0.721              1.593              1.207
 Vibration    16          0.730              1.568              1.150
 Vibration    17          0.750              1.512              1.038
 Vibration    18          0.772              1.456              0.938
 Vibration    19          0.776              1.444              0.920
 Vibration    20          0.813              1.350              0.781
 Vibration    21          0.833              1.301              0.719
 Vibration    22          0.850              1.262              0.672
 Vibration    23          0.856              1.249              0.657
 Vibration    24          0.863              1.232              0.638
 Vibration    25          0.920              1.109              0.516

 Optimization completed.
    -- Stationary point found.
 Normal termination of Gaussian 16 at Mon Sep 14 19:49:15 2020.

 ----------------------------------------------------------------------
 #p b3lyp/6-31G(d) scrf=(iefpcm,read,solvent=water) geom=allcheck guess
 =read
 ----------------------------------------------------------------------

 Structure from the checkpoint file:  "SM43_m0.n.2.pdb.xyz.mst.n.w.chk"
 -------------------
 SM43_m0.n.2.pdb.xyz
 -------------------
 Charge =  0 Multiplicity = 1

 SCF Done:  E(RB3LYP) =  -1215.00814966     A.U. after    5 cycles
 Normal termination of Gaussian 16 at Mon Sep 14 19:50:09 2020.

 -----------------------------
 #p B3LYP/6-31G* geom=allcheck
 -----------------------------

 Structure from the checkpoint file:  "SM43_m0.n.2.pdb.xyz.mst.n.w.chk"
 -------------------
 SM43_m0.n.2.pdb.xyz
 -------------------
 Charge =  0 Multiplicity = 1

 SCF Done:  E(RB3LYP) =  -1214.98875202     A.U. after   15 cycles
 Normal termination of Gaussian 16 at Mon Sep 14 19:51:02 2020.
 Gaussian 16:  ES64L-G16RevB.01 20-Dec-2017

 ----------------------------------------------------------------------
 #p mp2/aug-cc-pVDZ scf=(MaxCycle=2000,NoVarAcc,NoIncFock) maxdisk=180G
 B geom=allcheck
 ----------------------------------------------------------------------

 Structure from the checkpoint file:  "SM43_m0.n.2.pdb.xyz.mst.n.w.chk"
 -------------------
 SM43_m0.n.2.pdb.xyz
 -------------------
 Charge =  0 Multiplicity = 1

                         Standard orientation:
 ---------------------------------------------------------------------
 Center     Atomic      Atomic             Coordinates (Angstroms)
 Number     Number       Type             X           Y           Z
 ---------------------------------------------------------------------
      1          8           0        4.250110   -0.324385   -0.935916
      2         16           0        2.911570    0.177479   -0.610544
      3          7           0        1.930383   -1.179636   -0.724443
      4          6           0        0.576855   -1.146467   -0.384262
      5          7           0        0.015682   -2.227368    0.123301
      6          8           0       -1.337448   -1.886015    0.272450
      7          6           0       -1.531467   -0.606855   -0.132940
      8          6           0       -2.884862   -0.069268   -0.041452
      9          6           0       -3.138077    1.263024   -0.409740
     10          6           0       -4.428426    1.778921   -0.324799
     11          6           0       -5.478782    0.975428    0.127586
     12          6           0       -5.232020   -0.349193    0.495495
     13          6           0       -3.943940   -0.871738    0.412591
     14          6           0       -0.345254   -0.083303   -0.569089
     15          7           0        2.750434    0.656282    0.987242
     16          6           0        3.367767   -0.257209    1.960218
     17          6           0        3.021622    2.082605    1.245317
     18          8           0        2.317518    1.238420   -1.423936
     19          1           0        2.418766   -2.054231   -0.532498
     20          1           0       -2.326064    1.891192   -0.759494
     21          1           0       -4.614348    2.808453   -0.611071
     22          1           0       -6.483187    1.379927    0.193018
     23          1           0       -6.043562   -0.976994    0.847111
     24          1           0       -3.751522   -1.899457    0.696480
     25          1           0       -0.139899    0.893750   -0.971020
     26          1           0        3.047689   -1.280864    1.764243
     27          1           0        3.007615    0.031344    2.948656
     28          1           0        4.462028   -0.206059    1.944761
     29          1           0        2.501687    2.687754    0.505742
     30          1           0        4.093274    2.313442    1.228829
     31          1           0        2.624993    2.307298    2.236918
 ---------------------------------------------------------------------

 SCF Done:  E(RHF) =  -1209.53485215     A.U. after   17 cycles
 E2 =    -0.2783359734D+01 EUMP2 =    -0.12123182118816D+04

 The electronic state is 1-A.
 Alpha  occ. eigenvalues --  -92.26002 -20.65509 -20.57345 -20.57308 -15.64025
 Alpha  occ. eigenvalues --  -15.62709 -15.62686 -11.34507 -11.33927 -11.29128
 Alpha  occ. eigenvalues --  -11.28733 -11.27391 -11.26568 -11.26240 -11.26189
 Alpha  occ. eigenvalues --  -11.25880 -11.25752 -11.24758  -9.22432  -6.90991
 Alpha  occ. eigenvalues --   -6.90944  -6.90898  -1.49619  -1.48460  -1.35549
 Alpha  occ. eigenvalues --   -1.28962  -1.26308  -1.18213  -1.14604  -1.09685
 Alpha  occ. eigenvalues --   -1.03649  -1.02888  -0.99393  -0.96625  -0.88448
 Alpha  occ. eigenvalues --   -0.86933  -0.84400  -0.81525  -0.79914  -0.75169
 Alpha  occ. eigenvalues --   -0.74454  -0.71279  -0.69666  -0.67651  -0.66925
 Alpha  occ. eigenvalues --   -0.66440  -0.65072  -0.64752  -0.63145  -0.62288
 Alpha  occ. eigenvalues --   -0.60919  -0.60077  -0.59519  -0.58111  -0.57154
 Alpha  occ. eigenvalues --   -0.55481  -0.54532  -0.52514  -0.52429  -0.51727
 Alpha  occ. eigenvalues --   -0.51095  -0.50771  -0.50000  -0.48629  -0.48406
 Alpha  occ. eigenvalues --   -0.41999  -0.40821  -0.39367  -0.35422  -0.32192
 Alpha virt. eigenvalues --    0.02781   0.03235   0.03812   0.04544   0.04758
 Alpha virt. eigenvalues --    0.05166   0.05671   0.06057   0.06405   0.06951
 Alpha virt. eigenvalues --    0.07070   0.07598   0.08697   0.09083   0.09541

 Mulliken charges:
               1
     1  O   -1.130742
     2  S    3.189177
     3  N   -0.759939
     4  C   -0.282921
     5  N   -0.285148
     6  O   -1.077949
     7  C   -0.089981
     8  C    1.493113
     9  C    0.590069
    10  C    0.072677
    11  C    0.533582
    12  C    0.237492
    13  C    0.339596
    14  C    1.926976
    15  N   -1.023172
    16  C    0.742048
    17  C    0.784130
    18  O   -1.165416
    19  H   -0.099327
    20  H   -0.584924
    21  H   -0.487538
    22  H   -0.435327
    23  H   -0.442655
    24  H   -0.669787
    25  H   -0.624480
    26  H   -0.188412
    27  H   -0.145673
    28  H   -0.042008
    29  H   -0.141756
    30  H   -0.072480
    31  H   -0.159223
 Sum of Mulliken charges =  -0.00000

 Dipole moment (field-independent basis, Debye):
    X=             -2.3060    Y=              2.3632    Z=              3.9319  Tot=              5.1344
 Quadrupole moment (field-independent basis, Debye-Ang):
   XX=           -104.2909   YY=           -111.6808   ZZ=           -117.0661
   XY=             -3.7792   XZ=             14.6158   YZ=              2.2768

 Normal termination of Gaussian 16 at Mon Sep 14 20:28:50 2020.
