 Gaussian 16, Revision B.01,

 ----------------------------------------------------------------------
 #p b3lyp/6-31G(d) opt freq NoSymm scf=(MaxCycle=2000,NoVarAcc,NoIncFoc
 k) scrf=(iefpcm,read,solvent=water)
 ----------------------------------------------------------------------

 -------------------
 SM43_m0.n.6.pdb.xyz
 -------------------
 Symbolic Z-matrix:
 Charge =  0 Multiplicity = 1

 SCF Done:  E(RB3LYP) =  -1215.00586607     A.U. after   13 cycles
 SCF Done:  E(RB3LYP) =  -1215.00589807     A.U. after    9 cycles
 SCF Done:  E(RB3LYP) =  -1215.00590215     A.U. after    8 cycles
 SCF Done:  E(RB3LYP) =  -1215.00590092     A.U. after    8 cycles
 SCF Done:  E(RB3LYP) =  -1215.00589595     A.U. after    8 cycles
 SCF Done:  E(RB3LYP) =  -1215.00590188     A.U. after    8 cycles
 SCF Done:  E(RB3LYP) =  -1215.00590214     A.U. after    7 cycles
 SCF Done:  E(RB3LYP) =  -1215.00588968     A.U. after    9 cycles
 SCF Done:  E(RB3LYP) =  -1215.00588752     A.U. after    7 cycles
 SCF Done:  E(RB3LYP) =  -1215.00590163     A.U. after    9 cycles
 SCF Done:  E(RB3LYP) =  -1215.00588543     A.U. after    9 cycles
 SCF Done:  E(RB3LYP) =  -1215.00590193     A.U. after    9 cycles
 SCF Done:  E(RB3LYP) =  -1215.00588406     A.U. after    9 cycles
 SCF Done:  E(RB3LYP) =  -1215.00588375     A.U. after    7 cycles
 SCF Done:  E(RB3LYP) =  -1215.00588377     A.U. after    7 cycles
 Optimization completed.
    -- Stationary point found.
 Normal termination of Gaussian 16 at Wed Sep 23 01:39:36 2020.

 --------------------------------------------------------------------
 #P Geom=AllCheck Guess=TCheck SCRF=Check GenChk RB3LYP/6-31G(d) Freq
 --------------------------------------------------------------------

 Structure from the checkpoint file:  "SM43_m0.n.6.pdb.xyz.mst.n.w.chk"
 -------------------
 SM43_m0.n.6.pdb.xyz
 -------------------
 Charge =  0 Multiplicity = 1

 SCF Done:  E(RB3LYP) =  -1215.00588377     A.U. after    1 cycles

  Exact polarizability: 332.117   5.051 210.070   1.039  11.741 113.337
 Approx polarizability: 336.005   6.704 263.210   1.754  17.781 138.236

                      1                      2                      3
                      A                      A                      A
 Frequencies --     25.8942                32.1564                43.4908
 Red. masses --      4.3121                 5.7977                 5.5418
 Frc consts  --      0.0017                 0.0035                 0.0062
 IR Inten    --      3.9073                 0.5098                 2.0087

                      4                      5                      6
                      A                      A                      A
 Frequencies --     63.6571                76.4136                97.0691
 Red. masses --      4.5088                 3.7130                 5.0294
 Frc consts  --      0.0108                 0.0128                 0.0279
 IR Inten    --      2.7711                 5.2876                 0.7694

                      7                      8                      9
                      A                      A                      A
 Frequencies --    131.7962               164.6420               203.5521
 Red. masses --      4.4546                 4.6103                 1.1676
 Frc consts  --      0.0456                 0.0736                 0.0285
 IR Inten    --      4.2537                 2.1007                 1.5310

                     10                     11                     12
                      A                      A                      A
 Frequencies --    208.7079               217.2936               236.3801
 Red. masses --      1.8760                 4.0166                 1.9017
 Frc consts  --      0.0481                 0.1117                 0.0626
 IR Inten    --      2.2012                 0.2173                 7.1867

                     13                     14                     15
                      A                      A                      A
 Frequencies --    263.9401               321.3079               331.1012
 Red. masses --      5.1257                 4.8397                 5.7888
 Frc consts  --      0.2104                 0.2944                 0.3739
 IR Inten    --      0.6727                17.5862                13.0234

                     16                     17                     18
                      A                      A                      A
 Frequencies --    355.9716               381.6968               401.3787
 Red. masses --      2.9334                 7.0339                 4.0643
 Frc consts  --      0.2190                 0.6038                 0.3858
 IR Inten    --      7.4500                 3.0917                 5.2234

                     19                     20                     21
                      A                      A                      A
 Frequencies --    410.7871               460.9117               466.2863
 Red. masses --      2.9648                 4.3042                 4.9126
 Frc consts  --      0.2948                 0.5387                 0.6293
 IR Inten    --      0.0700                78.8778                36.0526

                     22                     23                     24
                      A                      A                      A
 Frequencies --    491.6056               498.8422               526.8523
 Red. masses --      3.6729                 3.5846                 2.6445
 Frc consts  --      0.5230                 0.5255                 0.4325
 IR Inten    --      6.1127                13.5766               164.2081

                     25                     26                     27
                      A                      A                      A
 Frequencies --    569.9953               630.7244               661.3816
 Red. masses --      6.6979                 6.4440                 8.2249
 Frc consts  --      1.2821                 1.5104                 2.1198
 IR Inten    --    116.0314                 0.0440                 1.3290

                     28                     29                     30
                      A                      A                      A
 Frequencies --    675.2175               701.0119               703.9883
 Red. masses --      6.6239                 1.9509                 4.0978
 Frc consts  --      1.7793                 0.5648                 1.1966
 IR Inten    --    112.4019                49.1163               139.3507

                     31                     32                     33
                      A                      A                      A
 Frequencies --    707.4918               774.4893               786.7258
 Red. masses --      3.7455                 1.4469                 4.6034
 Frc consts  --      1.1046                 0.5114                 1.6787
 IR Inten    --     28.4753               106.8082                33.0076

                     34                     35                     36
                      A                      A                      A
 Frequencies --    802.1017               841.2328               862.9272
 Red. masses --      2.1955                 6.0809                 1.2543
 Frc consts  --      0.8322                 2.5354                 0.5503
 IR Inten    --      2.9795               294.0740                 0.1777

                     37                     38                     39
                      A                      A                      A
 Frequencies --    943.7493               944.5932               958.7650
 Red. masses --      1.3909                 3.2452                 9.3713
 Frc consts  --      0.7299                 1.7060                 5.0755
 IR Inten    --      3.5749               227.4803                31.4899

                     40                     41                     42
                      A                      A                      A
 Frequencies --    966.4427               984.5468              1014.1158
 Red. masses --      9.5311                 1.3515                 1.2678
 Frc consts  --      5.2450                 0.7718                 0.7682
 IR Inten    --     25.3150                 0.0472                 0.0538

                     43                     44                     45
                      A                      A                      A
 Frequencies --   1017.2035              1047.6448              1061.7407
 Red. masses --      6.1109                 2.4914                 2.6499
 Frc consts  --      3.7254                 1.6111                 1.7600
 IR Inten    --      0.7853                 1.6992                53.0763

                     46                     47                     48
                      A                      A                      A
 Frequencies --   1070.6026              1089.3161              1111.4722
 Red. masses --      1.6169                 3.1205                 1.6122
 Frc consts  --      1.0919                 2.1817                 1.1735
 IR Inten    --     22.5269                63.5303                 7.1192

                     49                     50                     51
                      A                      A                      A
 Frequencies --   1115.6135              1133.5906              1179.6929
 Red. masses --     10.4515                 1.2360                 1.3603
 Frc consts  --      7.6640                 0.9358                 1.1154
 IR Inten    --    248.1829                 2.4718                 3.5560

                     52                     53                     54
                      A                      A                      A
 Frequencies --   1190.6971              1204.1944              1216.4282
 Red. masses --      1.0979                 1.2645                 2.0393
 Frc consts  --      0.9171                 1.0804                 1.7779
 IR Inten    --      0.4654                29.2116                47.5478

                     55                     56                     57
                      A                      A                      A
 Frequencies --   1220.6541              1278.7315              1288.7438
 Red. masses --      2.6600                 4.0915                 2.7518
 Frc consts  --      2.3352                 3.9417                 2.6928
 IR Inten    --     14.8131               274.8759               109.7306

                     58                     59                     60
                      A                      A                      A
 Frequencies --   1295.0265              1345.2950              1369.7827
 Red. masses --      4.8262                 2.5654                 2.2033
 Frc consts  --      4.7689                 2.7355                 2.4357
 IR Inten    --     34.4746                15.9448                 1.6817

                     61                     62                     63
                      A                      A                      A
 Frequencies --   1389.9536              1458.6747              1478.3698
 Red. masses --      1.8470                 1.1362                 1.1508
 Frc consts  --      2.1025                 1.4244                 1.4819
 IR Inten    --     30.0166                 1.0383                 6.9506

                     64                     65                     66
                      A                      A                      A
 Frequencies --   1492.2962              1505.8590              1509.7920
 Red. masses --      2.3749                 1.0533                 2.4168
 Frc consts  --      3.1160                 1.4073                 3.2458
 IR Inten    --     95.7020                22.6890               516.3696

                     67                     68                     69
                      A                      A                      A
 Frequencies --   1517.1438              1520.6255              1521.8909
 Red. masses --      1.0695                 1.1576                 2.7790
 Frc consts  --      1.4504                 1.5771                 3.7924
 IR Inten    --     61.5850               102.5545                46.3756

                     70                     71                     72
                      A                      A                      A
 Frequencies --   1535.4741              1558.0397              1629.9892
 Red. masses --      1.0575                 3.6442                 5.5072
 Frc consts  --      1.4690                 5.2121                 8.6208
 IR Inten    --     27.6832                39.0769               119.0985

                     73                     74                     75
                      A                      A                      A
 Frequencies --   1653.2343              1666.4324              3064.5155
 Red. masses --      6.5119                 6.0278                 1.0429
 Frc consts  --     10.4864                 9.8624                 5.7705
 IR Inten    --    122.8874                69.9697                44.9112

                     76                     77                     78
                      A                      A                      A
 Frequencies --   3066.7473              3149.0460              3151.4796
 Red. masses --      1.0420                 1.0955                 1.0960
 Frc consts  --      5.7739                 6.4008                 6.4136
 IR Inten    --     84.6218                45.1869                 5.5805

                     79                     80                     81
                      A                      A                      A
 Frequencies --   3188.2153              3207.8732              3208.5289
 Red. masses --      1.1047                 1.0858                 1.1022
 Frc consts  --      6.6159                 6.5834                 6.6852
 IR Inten    --     14.7828                 1.4372                 5.9547

                     82                     83                     84
                      A                      A                      A
 Frequencies --   3214.9104              3222.5488              3230.4805
 Red. masses --      1.0885                 1.0926                 1.0958
 Frc consts  --      6.6284                 6.6852                 6.7379
 IR Inten    --      5.9494                39.9198                39.2112

                     85                     86                     87
                      A                      A                      A
 Frequencies --   3238.7928              3315.7260              3536.0549
 Red. masses --      1.0949                 1.0990                 1.0770
 Frc consts  --      6.7671                 7.1189                 7.9340
 IR Inten    --     12.5400                 2.0766               186.1252

 - Thermochemistry -
 -------------------
 Temperature   298.150 Kelvin.  Pressure   1.00000 Atm.
 Atom     1 has atomic number  8 and mass  15.99491

 Molecular mass:   267.06776 amu.
 Principal axes and moments of inertia in atomic units:
                           1         2         3
     Eigenvalues --  1240.62102********************
           X            0.99995   0.00738  -0.00609
           Y           -0.00720   0.99954   0.02935
           Z            0.00630  -0.02931   0.99955
 This molecule is an asymmetric top.
 Rotational symmetry number  1.
 Warning -- assumption of classical behavior for rotation
           may cause significant error
 Rotational temperatures (Kelvin)      0.06981     0.00676     0.00651
 Rotational constants (GHZ):           1.45471     0.14094     0.13558
 Zero-point vibrational energy     630494.0 (Joules/Mol)
                                  150.69167 (Kcal/Mol)
 Warning -- explicit consideration of  25 degrees of freedom as
           vibrations may cause significant error
 Vibrational temperatures:     37.26    46.27    62.57    91.59   109.94
          (Kelvin)            139.66   189.63   236.88   292.87   300.28
                              312.64   340.10   379.75   462.29   476.38
                              512.16   549.18   577.49   591.03   663.15
                              670.88   707.31   717.72   758.02   820.10
                              907.47   951.58   971.49  1008.60  1012.88
                             1017.92  1114.32  1131.92  1154.05  1210.35
                             1241.56  1357.84  1359.06  1379.45  1390.50
                             1416.54  1459.09  1463.53  1507.33  1527.61
                             1540.36  1567.28  1599.16  1605.12  1630.98
                             1697.32  1713.15  1732.57  1750.17  1756.25
                             1839.81  1854.21  1863.25  1935.58  1970.81
                             1999.83  2098.71  2127.04  2147.08  2166.60
                             2172.25  2182.83  2187.84  2189.66  2209.20
                             2241.67  2345.19  2378.64  2397.62  4409.15
                             4412.37  4530.77  4534.28  4587.13  4615.41
                             4616.36  4625.54  4636.53  4647.94  4659.90
                             4770.59  5087.59

 Zero-point correction=                           0.240142 (Hartree/Particle)
 Thermal correction to Energy=                    0.256994
 Thermal correction to Enthalpy=                  0.257938
 Thermal correction to Gibbs Free Energy=         0.193635
 Sum of electronic and zero-point Energies=          -1214.765741
 Sum of electronic and thermal Energies=             -1214.748890
 Sum of electronic and thermal Enthalpies=           -1214.747945
 Sum of electronic and thermal Free Energies=        -1214.812248

                     E (Thermal)             CV                S
                      KCal/Mol        Cal/Mol-Kelvin    Cal/Mol-Kelvin
 Total                  161.266             63.235            135.337
 Electronic               0.000              0.000              0.000
 Translational            0.889              2.981             42.646
 Rotational               0.889              2.981             33.713
 Vibrational            159.489             57.273             58.977
 Vibration     1          0.593              1.985              6.121
 Vibration     2          0.594              1.983              5.692
 Vibration     3          0.595              1.980              5.093
 Vibration     4          0.597              1.972              4.340
 Vibration     5          0.599              1.965              3.981
 Vibration     6          0.603              1.951              3.512
 Vibration     7          0.612              1.922              2.920
 Vibration     8          0.623              1.886              2.496
 Vibration     9          0.639              1.835              2.101
 Vibration    10          0.642              1.827              2.055
 Vibration    11          0.646              1.815              1.982
 Vibration    12          0.655              1.785              1.830
 Vibration    13          0.670              1.739              1.636
 Vibration    14          0.707              1.633              1.303
 Vibration    15          0.713              1.613              1.255
 Vibration    16          0.731              1.563              1.140
 Vibration    17          0.751              1.509              1.032
 Vibration    18          0.767              1.467              0.958
 Vibration    19          0.775              1.447              0.924
 Vibration    20          0.819              1.337              0.763
 Vibration    21          0.824              1.325              0.748
 Vibration    22          0.847              1.269              0.679
 Vibration    23          0.854              1.253              0.661
 Vibration    24          0.882              1.191              0.594
 Vibration    25          0.926              1.096              0.504

                           ! Non-Optimized Parameters !
 Normal termination of Gaussian 16 at Wed Sep 23 01:47:07 2020.

 ----------------------------------------------------------------------
 #p b3lyp/6-31G(d) scrf=(iefpcm,read,solvent=water) geom=allcheck guess
 =read
 ----------------------------------------------------------------------

 Structure from the checkpoint file:  "SM43_m0.n.6.pdb.xyz.mst.n.w.chk"
 -------------------
 SM43_m0.n.6.pdb.xyz
 -------------------
 Charge =  0 Multiplicity = 1

 SCF Done:  E(RB3LYP) =  -1215.00587480     A.U. after    6 cycles
 Normal termination of Gaussian 16 at Wed Sep 23 01:47:39 2020.

 -----------------------------
 #p B3LYP/6-31G* geom=allcheck
 -----------------------------

 Structure from the checkpoint file:  "SM43_m0.n.6.pdb.xyz.mst.n.w.chk"
 -------------------
 SM43_m0.n.6.pdb.xyz
 -------------------
 Charge =  0 Multiplicity = 1

 SCF Done:  E(RB3LYP) =  -1214.97922911     A.U. after   15 cycles
 Normal termination of Gaussian 16 at Wed Sep 23 01:48:14 2020.
 Gaussian 16:  ES64L-G16RevB.01 20-Dec-2017

 ----------------------------------------------------------------------
 #p mp2/aug-cc-pVDZ scf=(MaxCycle=2000,NoVarAcc,NoIncFock) maxdisk=120G
 B geom=allcheck
 ----------------------------------------------------------------------

 Structure from the checkpoint file:  "SM43_m0.n.6.pdb.xyz.mst.n.w.chk"
 -------------------
 SM43_m0.n.6.pdb.xyz
 -------------------
 Charge =  0 Multiplicity = 1

                         Standard orientation:
 ---------------------------------------------------------------------
 Center     Atomic      Atomic             Coordinates (Angstroms)
 Number     Number       Type             X           Y           Z
 ---------------------------------------------------------------------
      1          8           0       -3.073498   -0.864732   -1.597773
      2         16           0       -2.948584   -0.412422   -0.207847
      3          7           0       -1.592199    0.573362    0.020938
      4          6           0       -0.291679    0.066450    0.054389
      5          7           0       -0.018335   -1.205383    0.274364
      6          8           0        1.386354   -1.269008    0.266211
      7          6           0        1.899466   -0.035805    0.042250
      8          6           0        3.352953    0.088042    0.002532
      9          6           0        3.948547    1.340662   -0.218851
     10          6           0        5.334911    1.458894   -0.257354
     11          6           0        6.141922    0.332301   -0.075706
     12          6           0        5.554588   -0.915642    0.144718
     13          6           0        4.168302   -1.040678    0.184012
     14          6           0        0.877053    0.860276   -0.102614
     15          7           0       -4.088946    0.781930    0.036632
     16          6           0       -5.358807    0.594769   -0.686397
     17          6           0       -4.246753    1.203852    1.439366
     18          8           0       -2.910762   -1.430558    0.847547
     19          1           0       -1.685891    1.455881   -0.481506
     20          1           0        3.326466    2.217616   -0.360397
     21          1           0        5.785703    2.430386   -0.428954
     22          1           0        7.222146    0.426911   -0.105936
     23          1           0        6.176420   -1.792965    0.286130
     24          1           0        3.709378   -2.007181    0.354672
     25          1           0        0.929238    1.920166   -0.290178
     26          1           0       -5.154343    0.334684   -1.722483
     27          1           0       -5.885658    1.549676   -0.654666
     28          1           0       -5.990739   -0.174598   -0.228157
     29          1           0       -3.264257    1.370338    1.880146
     30          1           0       -4.799102    0.467107    2.032883
     31          1           0       -4.795405    2.147035    1.434512
 ---------------------------------------------------------------------

 SCF Done:  E(RHF) =  -1209.52161807     A.U. after   16 cycles
 E2 =    -0.2783497170D+01 EUMP2 =    -0.12123051152401D+04

 The electronic state is 1-A.
 Alpha  occ. eigenvalues --  -92.25069 -20.65048 -20.56288 -20.55835 -15.63780
 Alpha  occ. eigenvalues --  -15.62396 -15.61822 -11.34158 -11.33984 -11.28635
 Alpha  occ. eigenvalues --  -11.28349 -11.27354 -11.26643 -11.26228 -11.26104
 Alpha  occ. eigenvalues --  -11.25910 -11.25697 -11.25193  -9.21501  -6.90034
 Alpha  occ. eigenvalues --   -6.90006  -6.89984  -1.49071  -1.47085  -1.33845
 Alpha  occ. eigenvalues --   -1.28586  -1.25997  -1.18177  -1.14253  -1.09678
 Alpha  occ. eigenvalues --   -1.03643  -1.02879  -0.99005  -0.96750  -0.88493
 Alpha  occ. eigenvalues --   -0.85990  -0.84164  -0.81515  -0.78286  -0.75293
 Alpha  occ. eigenvalues --   -0.73788  -0.69954  -0.69808  -0.67695  -0.66245
 Alpha  occ. eigenvalues --   -0.66090  -0.65202  -0.64106  -0.63097  -0.61699
 Alpha  occ. eigenvalues --   -0.60904  -0.60146  -0.58374  -0.57723  -0.56625
 Alpha  occ. eigenvalues --   -0.55899  -0.54543  -0.52732  -0.52380  -0.51236
 Alpha  occ. eigenvalues --   -0.51036  -0.50308  -0.48494  -0.47094  -0.46117
 Alpha  occ. eigenvalues --   -0.41655  -0.40804  -0.38616  -0.35408  -0.32144
 Alpha virt. eigenvalues --    0.02237   0.02935   0.03582   0.04276   0.04540
 Alpha virt. eigenvalues --    0.05078   0.05631   0.05680   0.06494   0.06988
 Alpha virt. eigenvalues --    0.07216   0.07579   0.07921   0.09532   0.09689

 Mulliken charges:
               1
     1  O   -1.182159
     2  S    3.434176
     3  N   -0.969741
     4  C   -0.375298
     5  N   -0.203480
     6  O   -1.100371
     7  C    0.462227
     8  C    1.281024
     9  C    0.736737
    10  C   -0.020479
    11  C    0.588784
    12  C    0.175087
    13  C    0.445654
    14  C    1.383723
    15  N   -1.117294
    16  C    0.788715
    17  C    0.723526
    18  O   -1.146011
    19  H   -0.062692
    20  H   -0.584584
    21  H   -0.484020
    22  H   -0.437074
    23  H   -0.439886
    24  H   -0.649991
    25  H   -0.596790
    26  H   -0.142773
    27  H   -0.144966
    28  H   -0.025522
    29  H   -0.147449
    30  H   -0.033708
    31  H   -0.155365
 Sum of Mulliken charges =  -0.00000

 Dipole moment (field-independent basis, Debye):
    X=              1.0580    Y=              7.3475    Z=              0.3350  Tot=              7.4308
 Quadrupole moment (field-independent basis, Debye-Ang):
   XX=            -76.4785   YY=           -111.8229   ZZ=           -121.5766
   XY=            -14.0761   XZ=             -4.0469   YZ=             -1.0716

 Normal termination of Gaussian 16 at Wed Sep 23 02:22:58 2020.
