 Gaussian 16, Revision B.01,

 ----------------------------------------------------------------------
 #p b3lyp/6-31G(d) opt freq NoSymm scf=(MaxCycle=2000,NoVarAcc,NoIncFoc
 k) scrf=(iefpcm,read,solvent=water)
 ----------------------------------------------------------------------

 -------------------
 SM43_m1.a.6.pdb.xyz
 -------------------
 Symbolic Z-matrix:
 Charge = -1 Multiplicity = 1

 SCF Done:  E(RB3LYP) =  -1214.53820811     A.U. after   13 cycles
 SCF Done:  E(RB3LYP) =  -1214.53809586     A.U. after    9 cycles
 SCF Done:  E(RB3LYP) =  -1214.53812023     A.U. after    8 cycles
 SCF Done:  E(RB3LYP) =  -1214.53820361     A.U. after    9 cycles
 SCF Done:  E(RB3LYP) =  -1214.53820898     A.U. after    8 cycles
 SCF Done:  E(RB3LYP) =  -1214.53811812     A.U. after   10 cycles
 SCF Done:  E(RB3LYP) =  -1214.53811437     A.U. after    8 cycles
 SCF Done:  E(RB3LYP) =  -1214.53820372     A.U. after    9 cycles
 SCF Done:  E(RB3LYP) =  -1214.53820868     A.U. after    8 cycles
 SCF Done:  E(RB3LYP) =  -1214.53820896     A.U. after    7 cycles
 SCF Done:  E(RB3LYP) =  -1214.53820832     A.U. after    8 cycles
 SCF Done:  E(RB3LYP) =  -1214.53810854     A.U. after   10 cycles
 SCF Done:  E(RB3LYP) =  -1214.53810832     A.U. after    6 cycles
 SCF Done:  E(RB3LYP) =  -1214.53820243     A.U. after   10 cycles
 SCF Done:  E(RB3LYP) =  -1214.53820830     A.U. after    8 cycles
 SCF Done:  E(RB3LYP) =  -1214.53810826     A.U. after   10 cycles
 Optimization completed.
    -- Stationary point found.
 Normal termination of Gaussian 16 at Thu Sep 24 07:43:46 2020.

 --------------------------------------------------------------------
 #P Geom=AllCheck Guess=TCheck SCRF=Check GenChk RB3LYP/6-31G(d) Freq
 --------------------------------------------------------------------

 Structure from the checkpoint file:  "SM43_m1.a.6.pdb.xyz.mst.a.w.chk"
 -------------------
 SM43_m1.a.6.pdb.xyz
 -------------------
 Charge = -1 Multiplicity = 1

 SCF Done:  E(RB3LYP) =  -1214.53810826     A.U. after    1 cycles

  Exact polarizability: 351.911   5.425 215.021   8.365 -10.175 112.086
 Approx polarizability: 351.332   8.982 270.488  10.203  -9.947 135.559

                      1                      2                      3
                      A                      A                      A
 Frequencies --     26.7178                31.8702                48.0026
 Red. masses --      4.0596                 4.2560                 7.3770
 Frc consts  --      0.0017                 0.0025                 0.0100
 IR Inten    --      3.1778                 3.6172                 1.2287

                      4                      5                      6
                      A                      A                      A
 Frequencies --     62.2948                69.6961               104.0438
 Red. masses --      3.6162                 5.0966                 6.1349
 Frc consts  --      0.0083                 0.0146                 0.0391
 IR Inten    --      1.5377                 3.7814                 2.4327

                      7                      8                      9
                      A                      A                      A
 Frequencies --    129.5309               179.3150               199.7503
 Red. masses --      5.4721                 3.3950                 1.3956
 Frc consts  --      0.0541                 0.0643                 0.0328
 IR Inten    --      4.9535                 3.9380                 0.3259

                     10                     11                     12
                      A                      A                      A
 Frequencies --    215.5945               219.4555               229.3947
 Red. masses --      1.5136                 2.4458                 2.9027
 Frc consts  --      0.0415                 0.0694                 0.0900
 IR Inten    --      1.0007                 1.8819                 9.3423

                     13                     14                     15
                      A                      A                      A
 Frequencies --    275.7218               336.7814               340.3757
 Red. masses --      5.5543                 7.4254                 3.9868
 Frc consts  --      0.2488                 0.4962                 0.2721
 IR Inten    --      7.9344                 5.9495                45.3202

                     16                     17                     18
                      A                      A                      A
 Frequencies --    359.2258               395.0253               411.8269
 Red. masses --      3.7709                 5.2809                 3.0233
 Frc consts  --      0.2867                 0.4855                 0.3021
 IR Inten    --     13.0232                 7.6814                 0.1263

                     19                     20                     21
                      A                      A                      A
 Frequencies --    416.9916               472.5368               476.7752
 Red. masses --      5.7799                 5.3784                 6.8803
 Frc consts  --      0.5921                 0.7076                 0.9215
 IR Inten    --      4.7779                24.5548                17.2944

                     22                     23                     24
                      A                      A                      A
 Frequencies --    496.1135               524.5151               572.1141
 Red. masses --      4.1199                 8.5726                 6.7723
 Frc consts  --      0.5974                 1.3896                 1.3060
 IR Inten    --      6.6304                41.2140                52.7787

                     25                     26                     27
                      A                      A                      A
 Frequencies --    631.6367               653.9877               658.1789
 Red. masses --      6.4559                 7.5018                 7.7608
 Frc consts  --      1.5175                 1.8904                 1.9808
 IR Inten    --      0.8258                 5.1535               202.4044

                     28                     29                     30
                      A                      A                      A
 Frequencies --    702.2382               704.9670               711.8447
 Red. masses --      6.0942                 1.8257                 3.9337
 Frc consts  --      1.7707                 0.5346                 1.1744
 IR Inten    --    161.3906                44.9910                 7.2901

                     31                     32                     33
                      A                      A                      A
 Frequencies --    734.0190               779.0424               801.8700
 Red. masses --     11.2416                 1.4357                 1.9848
 Frc consts  --      3.5685                 0.5134                 0.7519
 IR Inten    --     55.6539               106.3886                 5.9268

                     34                     35                     36
                      A                      A                      A
 Frequencies --    862.4691               890.3169               920.0766
 Red. masses --      1.2542                11.9435                13.2861
 Frc consts  --      0.5497                 5.5779                 6.6267
 IR Inten    --      0.1730               350.5164                23.2773

                     37                     38                     39
                      A                      A                      A
 Frequencies --    940.2095               940.7632               958.1880
 Red. masses --      3.3295                 1.3908                 8.3622
 Frc consts  --      1.7341                 0.7253                 4.5235
 IR Inten    --    171.5059                 2.3302                41.7749

                     40                     41                     42
                      A                      A                      A
 Frequencies --    981.9851              1012.1173              1017.0401
 Red. masses --      1.3507                 1.2601                 6.0920
 Frc consts  --      0.7674                 0.7605                 3.7127
 IR Inten    --      0.0757                 0.1092                 0.3599

                     43                     44                     45
                      A                      A                      A
 Frequencies --   1037.5188              1055.0853              1061.0171
 Red. masses --      2.3518                 2.5175                 1.5699
 Frc consts  --      1.4916                 1.6512                 1.0413
 IR Inten    --     38.5628                19.9703                17.5349

                     46                     47                     48
                      A                      A                      A
 Frequencies --   1068.4311              1095.9718              1108.4748
 Red. masses --      6.1374                 4.6291                 1.5715
 Frc consts  --      4.1279                 3.2760                 1.1377
 IR Inten    --    419.6553               140.5311                13.7677

                     49                     50                     51
                      A                      A                      A
 Frequencies --   1124.9311              1176.6014              1188.0686
 Red. masses --      1.2259                 1.4290                11.7342
 Frc consts  --      0.9140                 1.1656                 9.7586
 IR Inten    --      3.0856                 7.7704               361.5067

                     52                     53                     54
                      A                      A                      A
 Frequencies --   1189.0461              1202.5320              1214.7490
 Red. masses --      1.1212                 1.1765                 3.5367
 Frc consts  --      0.9340                 1.0024                 3.0749
 IR Inten    --     10.1705                29.3779               166.8432

                     55                     56                     57
                      A                      A                      A
 Frequencies --   1234.7267              1266.7996              1295.8693
 Red. masses --      2.4242                 1.9057                 4.7741
 Frc consts  --      2.1775                 1.8019                 4.7235
 IR Inten    --     79.8398                 8.1595                 7.1990

                     58                     59                     60
                      A                      A                      A
 Frequencies --   1350.4067              1367.6476              1435.9171
 Red. masses --      2.9528                 2.1620                 5.5338
 Frc consts  --      3.1726                 2.3826                 6.7226
 IR Inten    --     28.3814                 1.6351               216.2382

                     61                     62                     63
                      A                      A                      A
 Frequencies --   1441.1168              1459.3570              1490.9574
 Red. masses --      1.2020                 1.1704                 3.0281
 Frc consts  --      1.4708                 1.4686                 3.9660
 IR Inten    --      4.7217                 5.6516               267.7252

                     64                     65                     66
                      A                      A                      A
 Frequencies --   1501.6248              1503.9500              1513.7151
 Red. masses --      1.3380                 1.8672                 1.1786
 Frc consts  --      1.7776                 2.4883                 1.5911
 IR Inten    --    155.5020               481.4781                62.6110

                     67                     68                     69
                      A                      A                      A
 Frequencies --   1518.0381              1530.3375              1541.9694
 Red. masses --      1.0467                 1.0473                 2.4331
 Frc consts  --      1.4212                 1.4451                 3.4085
 IR Inten    --      3.7993                15.9946               229.0802

                     70                     71                     72
                      A                      A                      A
 Frequencies --   1627.3358              1651.1385              1667.2583
 Red. masses --      5.7892                 6.8475                 6.1457
 Frc consts  --      9.0328                10.9990                10.0653
 IR Inten    --    139.4739               111.4651                31.2950

                     73                     74                     75
                      A                      A                      A
 Frequencies --   3026.3471              3031.9476              3123.0239
 Red. masses --      1.0518                 1.0504                 1.0885
 Frc consts  --      5.6758                 5.6890                 6.2553
 IR Inten    --     78.3322               115.1997                48.5286

                     76                     77                     78
                      A                      A                      A
 Frequencies --   3127.2556              3187.3428              3191.8539
 Red. masses --      1.0857                 1.1002                 1.1004
 Frc consts  --      6.2559                 6.5854                 6.6053
 IR Inten    --     34.6704                20.2583                12.6237

                     79                     80                     81
                      A                      A                      A
 Frequencies --   3204.6333              3212.1083              3219.8853
 Red. masses --      1.0857                 1.0884                 1.0926
 Frc consts  --      6.5691                 6.6165                 6.6741
 IR Inten    --      1.9846                 8.2460                46.9169

                     82                     83                     84
                      A                      A                      A
 Frequencies --   3228.6423              3236.7774              3301.0774
 Red. masses --      1.0960                 1.0942                 1.0982
 Frc consts  --      6.7314                 6.7542                 7.0512
 IR Inten    --     42.3385                11.2254                 0.9038

 - Thermochemistry -
 -------------------
 Temperature   298.150 Kelvin.  Pressure   1.00000 Atm.
 Atom     1 has atomic number  8 and mass  15.99491

 Molecular mass:   266.05994 amu.
 Principal axes and moments of inertia in atomic units:
                           1         2         3
     Eigenvalues --  1216.51986********************
           X            0.99985   0.01037  -0.01371
           Y           -0.00655   0.96715   0.25412
           Z            0.01589  -0.25400   0.96707
 This molecule is an asymmetric top.
 Rotational symmetry number  1.
 Warning -- assumption of classical behavior for rotation
           may cause significant error
 Rotational temperatures (Kelvin)      0.07120     0.00690     0.00654
 Rotational constants (GHZ):           1.48353     0.14370     0.13634
 Zero-point vibrational energy     595178.7 (Joules/Mol)
                                  142.25112 (Kcal/Mol)
 Warning -- explicit consideration of  24 degrees of freedom as
           vibrations may cause significant error
 Vibrational temperatures:     38.44    45.85    69.07    89.63   100.28
          (Kelvin)            149.70   186.37   257.99   287.40   310.19
                              315.75   330.05   396.70   484.55   489.72
                              516.85   568.35   592.53   599.96   679.88
                              685.97   713.80   754.66   823.14   908.78
                              940.94   946.97  1010.36  1014.29  1024.19
                             1056.09  1120.87  1153.71  1240.90  1280.97
                             1323.78  1352.75  1353.55  1378.62  1412.86
                             1456.21  1463.29  1492.76  1518.03  1526.57
                             1537.23  1576.86  1594.85  1618.53  1692.87
                             1709.37  1710.77  1730.18  1747.75  1776.50
                             1822.64  1864.47  1942.93  1967.74  2065.96
                             2073.45  2099.69  2145.16  2160.50  2163.85
                             2177.90  2184.12  2201.81  2218.55  2341.37
                             2375.62  2398.81  4354.24  4362.30  4493.33
                             4499.42  4585.88  4592.37  4610.75  4621.51
                             4632.70  4645.30  4657.00  4749.51

 Zero-point correction=                           0.226692 (Hartree/Particle)
 Thermal correction to Energy=                    0.243228
 Thermal correction to Enthalpy=                  0.244172
 Thermal correction to Gibbs Free Energy=         0.180479
 Sum of electronic and zero-point Energies=          -1214.311417
 Sum of electronic and thermal Energies=             -1214.294881
 Sum of electronic and thermal Enthalpies=           -1214.293936
 Sum of electronic and thermal Free Energies=        -1214.357630

                     E (Thermal)             CV                S
                      KCal/Mol        Cal/Mol-Kelvin    Cal/Mol-Kelvin
 Total                  152.628             61.955            134.054
 Electronic               0.000              0.000              0.000
 Translational            0.889              2.981             42.635
 Rotational               0.889              2.981             33.669
 Vibrational            150.850             55.993             57.750
 Vibration     1          0.593              1.984              6.059
 Vibration     2          0.594              1.983              5.709
 Vibration     3          0.595              1.978              4.898
 Vibration     4          0.597              1.972              4.383
 Vibration     5          0.598              1.969              4.162
 Vibration     6          0.605              1.946              3.377
 Vibration     7          0.612              1.924              2.953
 Vibration     8          0.629              1.868              2.336
 Vibration     9          0.638              1.840              2.135
 Vibration    10          0.645              1.817              1.996
 Vibration    11          0.647              1.811              1.964
 Vibration    12          0.652              1.796              1.884
 Vibration    13          0.677              1.718              1.560
 Vibration    14          0.717              1.602              1.227
 Vibration    15          0.720              1.595              1.210
 Vibration    16          0.734              1.556              1.125
 Vibration    17          0.762              1.481              0.981
 Vibration    18          0.776              1.445              0.920
 Vibration    19          0.780              1.433              0.902
 Vibration    20          0.829              1.311              0.730
 Vibration    21          0.833              1.302              0.719
 Vibration    22          0.852              1.259              0.668
 Vibration    23          0.879              1.196              0.600
 Vibration    24          0.928              1.092              0.500

 Optimization completed.
    -- Stationary point found.
 Normal termination of Gaussian 16 at Thu Sep 24 07:50:56 2020.

 ----------------------------------------------------------------------
 #p b3lyp/6-31G(d) scrf=(iefpcm,read,solvent=water) geom=allcheck guess
 =read
 ----------------------------------------------------------------------

 Structure from the checkpoint file:  "SM43_m1.a.6.pdb.xyz.mst.a.w.chk"
 -------------------
 SM43_m1.a.6.pdb.xyz
 -------------------
 Charge = -1 Multiplicity = 1

 SCF Done:  E(RB3LYP) =  -1214.53809293     A.U. after    7 cycles
 Normal termination of Gaussian 16 at Thu Sep 24 07:51:32 2020.

 -----------------------------
 #p B3LYP/6-31G* geom=allcheck
 -----------------------------

 Structure from the checkpoint file:  "SM43_m1.a.6.pdb.xyz.mst.a.w.chk"
 -------------------
 SM43_m1.a.6.pdb.xyz
 -------------------
 Charge = -1 Multiplicity = 1

 SCF Done:  E(RB3LYP) =  -1214.43679287     A.U. after   15 cycles
 Normal termination of Gaussian 16 at Thu Sep 24 07:52:06 2020.
 Gaussian 16:  ES64L-G16RevB.01 20-Dec-2017

 ----------------------------------------------------------------------
 #p mp2/aug-cc-pVDZ scf=(MaxCycle=2000,NoVarAcc,NoIncFock) maxdisk=120G
 B geom=allcheck
 ----------------------------------------------------------------------

 Structure from the checkpoint file:  "SM43_m1.a.6.pdb.xyz.mst.a.w.chk"
 -------------------
 SM43_m1.a.6.pdb.xyz
 -------------------
 Charge = -1 Multiplicity = 1

                         Standard orientation:
 ---------------------------------------------------------------------
 Center     Atomic      Atomic             Coordinates (Angstroms)
 Number     Number       Type             X           Y           Z
 ---------------------------------------------------------------------
      1          8           0       -3.152348   -1.285268   -1.240774
      2         16           0       -2.882324   -0.378173   -0.094633
      3          7           0       -1.602019    0.573343   -0.284227
      4          6           0       -0.354308    0.034595   -0.134076
      5          7           0       -0.063950   -1.247143    0.101063
      6          8           0        1.357332   -1.307974    0.158282
      7          6           0        1.863528   -0.067621   -0.045926
      8          6           0        3.317721    0.072196   -0.020427
      9          6           0        3.913195    1.316729   -0.282702
     10          6           0        5.298243    1.452910   -0.257431
     11          6           0        6.108357    0.350346    0.029226
     12          6           0        5.522587   -0.890366    0.290384
     13          6           0        4.136777   -1.031399    0.266110
     14          6           0        0.846156    0.817627   -0.235576
     15          7           0       -4.099176    0.821232   -0.194503
     16          6           0       -5.437819    0.237298   -0.350087
     17          6           0       -4.051300    1.794312    0.904969
     18          8           0       -2.952499   -1.051453    1.233953
     19          1           0        3.288620    2.174108   -0.508129
     20          1           0        5.746054    2.419598   -0.462700
     21          1           0        7.187684    0.457982    0.048503
     22          1           0        6.145463   -1.750072    0.513936
     23          1           0        3.679247   -1.992385    0.469287
     24          1           0        0.908175    1.878345   -0.419147
     25          1           0       -5.436655   -0.458180   -1.187683
     26          1           0       -6.131382    1.053298   -0.564913
     27          1           0       -5.782673   -0.283717    0.554595
     28          1           0       -3.044135    2.202229    0.977879
     29          1           0       -4.337378    1.353842    1.870100
     30          1           0       -4.748521    2.601492    0.667606
 ---------------------------------------------------------------------

 SCF Done:  E(RHF) =  -1208.98226243     A.U. after   18 cycles
 E2 =    -0.2796175846D+01 EUMP2 =    -0.12117784382732D+04

 The electronic state is 1-A.
 Alpha  occ. eigenvalues --  -92.06006 -20.50033 -20.37898 -20.37823 -15.45914
 Alpha  occ. eigenvalues --  -15.45469 -15.38827 -11.19923 -11.17710 -11.17439
 Alpha  occ. eigenvalues --  -11.17168 -11.17053 -11.16902 -11.16803 -11.16315
 Alpha  occ. eigenvalues --  -11.14199 -11.14071 -11.11267  -9.02491  -6.71014
 Alpha  occ. eigenvalues --   -6.71002  -6.70960  -1.33439  -1.27970  -1.14606
 Alpha  occ. eigenvalues --   -1.09821  -1.08525  -1.07385  -0.98325  -0.95768
 Alpha  occ. eigenvalues --   -0.94187  -0.90815  -0.84145  -0.79308  -0.77052
 Alpha  occ. eigenvalues --   -0.75427  -0.69179  -0.67365  -0.63737  -0.60421
 Alpha  occ. eigenvalues --   -0.57706  -0.55217  -0.54550  -0.54026  -0.51716
 Alpha  occ. eigenvalues --   -0.51537  -0.51276  -0.50819  -0.48783  -0.47433
 Alpha  occ. eigenvalues --   -0.45952  -0.44184  -0.43422  -0.43292  -0.42916
 Alpha  occ. eigenvalues --   -0.42028  -0.41072  -0.39944  -0.36397  -0.35505
 Alpha  occ. eigenvalues --   -0.33445  -0.31805  -0.30573  -0.29446  -0.28818
 Alpha  occ. eigenvalues --   -0.26806  -0.26367  -0.24733  -0.20463  -0.18107
 Alpha virt. eigenvalues --    0.08821   0.09889   0.10972   0.11565   0.12458
 Alpha virt. eigenvalues --    0.13281   0.14013   0.14289   0.15327   0.15821
 Alpha virt. eigenvalues --    0.16033   0.16528   0.17209   0.17893   0.18069

 Mulliken charges:
               1
     1  O   -1.262452
     2  S    3.461830
     3  N   -1.358605
     4  C   -0.408183
     5  N   -0.217365
     6  O   -1.130137
     7  C    0.515439
     8  C    1.215163
     9  C    0.676028
    10  C   -0.052691
    11  C    0.580131
    12  C    0.183764
    13  C    0.466720
    14  C    1.321851
    15  N   -1.197877
    16  C    0.794904
    17  C    0.654753
    18  O   -1.305391
    19  H   -0.571460
    20  H   -0.498472
    21  H   -0.456917
    22  H   -0.454413
    23  H   -0.650278
    24  H   -0.616550
    25  H   -0.134899
    26  H   -0.181826
    27  H   -0.032612
    28  H   -0.148216
    29  H   -0.008474
    30  H   -0.183765
 Sum of Mulliken charges =  -1.00000

 Dipole moment (field-independent basis, Debye):
    X=              7.9990    Y=              5.9622    Z=              0.6124  Tot=              9.9954
 Quadrupole moment (field-independent basis, Debye-Ang):
   XX=           -138.6376   YY=           -123.4085   ZZ=           -129.1439
   XY=            -10.6879   XZ=             -2.6673   YZ=             -0.2370

 Normal termination of Gaussian 16 at Thu Sep 24 08:16:56 2020.
