 Gaussian 16, Revision B.01,

 ----------------------------------------------------------------------
 #p b3lyp/6-31G(d) opt freq NoSymm scf=(MaxCycle=2000,NoVarAcc,NoIncFoc
 k) scrf=(iefpcm,read,solvent=water)
 ----------------------------------------------------------------------

 -------------------
 SM43_m0.n.9.pdb.xyz
 -------------------
 Symbolic Z-matrix:
 Charge =  0 Multiplicity = 1

 SCF Done:  E(RB3LYP) =  -1215.00773324     A.U. after   13 cycles
 SCF Done:  E(RB3LYP) =  -1215.00776528     A.U. after    9 cycles
 SCF Done:  E(RB3LYP) =  -1215.00777712     A.U. after    8 cycles
 SCF Done:  E(RB3LYP) =  -1215.00777913     A.U. after    8 cycles
 SCF Done:  E(RB3LYP) =  -1215.00778148     A.U. after    8 cycles
 SCF Done:  E(RB3LYP) =  -1215.00778403     A.U. after    8 cycles
 SCF Done:  E(RB3LYP) =  -1215.00778669     A.U. after    8 cycles
 SCF Done:  E(RB3LYP) =  -1215.00778930     A.U. after    8 cycles
 SCF Done:  E(RB3LYP) =  -1215.00778984     A.U. after    8 cycles
 SCF Done:  E(RB3LYP) =  -1215.00778989     A.U. after    7 cycles
 SCF Done:  E(RB3LYP) =  -1215.00778988     A.U. after    7 cycles
 SCF Done:  E(RB3LYP) =  -1215.00778942     A.U. after    7 cycles
 SCF Done:  E(RB3LYP) =  -1215.00778940     A.U. after    7 cycles
 SCF Done:  E(RB3LYP) =  -1215.00778931     A.U. after    7 cycles
 Optimization completed.
    -- Stationary point found.
 Normal termination of Gaussian 16 at Wed Sep 23 01:39:00 2020.

 --------------------------------------------------------------------
 #P Geom=AllCheck Guess=TCheck SCRF=Check GenChk RB3LYP/6-31G(d) Freq
 --------------------------------------------------------------------

 Structure from the checkpoint file:  "SM43_m0.n.9.pdb.xyz.mst.n.w.chk"
 -------------------
 SM43_m0.n.9.pdb.xyz
 -------------------
 Charge =  0 Multiplicity = 1

 SCF Done:  E(RB3LYP) =  -1215.00778931     A.U. after    1 cycles

  Exact polarizability: 321.445   7.856 213.451   1.773 -20.287 117.816
 Approx polarizability: 331.633  13.508 265.447   2.220 -30.081 139.706

                      1                      2                      3
                      A                      A                      A
 Frequencies --     18.6257                33.1751                52.6964
 Red. masses --      5.4943                 4.1073                 3.5027
 Frc consts  --      0.0011                 0.0027                 0.0057
 IR Inten    --      3.3214                 1.6405                 3.1288

                      4                      5                      6
                      A                      A                      A
 Frequencies --     65.2984                84.7602                85.8112
 Red. masses --      3.9798                 5.5094                 4.9595
 Frc consts  --      0.0100                 0.0233                 0.0215
 IR Inten    --      2.7313                 5.5596                 2.9109

                      7                      8                      9
                      A                      A                      A
 Frequencies --    126.2562               175.0943               202.1710
 Red. masses --      7.4368                 1.8750                 1.4302
 Frc consts  --      0.0698                 0.0339                 0.0344
 IR Inten    --      0.9097                 6.4605                 3.3574

                     10                     11                     12
                      A                      A                      A
 Frequencies --    210.7492               224.7177               241.4838
 Red. masses --      1.6925                 2.7784                 4.2016
 Frc consts  --      0.0443                 0.0827                 0.1444
 IR Inten    --      0.3591                 4.5956                 3.9367

                     13                     14                     15
                      A                      A                      A
 Frequencies --    262.5150               300.1434               335.8428
 Red. masses --      5.0050                 5.8454                 5.2243
 Frc consts  --      0.2032                 0.3103                 0.3472
 IR Inten    --      1.0479                 7.8132                17.1822

                     16                     17                     18
                      A                      A                      A
 Frequencies --    353.1262               385.1430               395.7046
 Red. masses --      2.7816                 6.9475                 6.3296
 Frc consts  --      0.2044                 0.6072                 0.5839
 IR Inten    --      4.8254                12.8926                29.2222

                     19                     20                     21
                      A                      A                      A
 Frequencies --    412.1599               425.5470               465.9442
 Red. masses --      2.9491                 1.4908                 5.0483
 Frc consts  --      0.2952                 0.1591                 0.6457
 IR Inten    --      0.5305               115.0503                14.9216

                     22                     23                     24
                      A                      A                      A
 Frequencies --    471.4153               495.6737               502.6211
 Red. masses --      4.6220                 4.8429                 4.7971
 Frc consts  --      0.6052                 0.7010                 0.7140
 IR Inten    --     50.0014                38.0854                19.6731

                     25                     26                     27
                      A                      A                      A
 Frequencies --    571.1546               630.8674               661.4112
 Red. masses --      8.9765                 6.4448                 8.2310
 Frc consts  --      1.7253                 1.5112                 2.1215
 IR Inten    --    141.4245                 0.0714                 2.0117

                     28                     29                     30
                      A                      A                      A
 Frequencies --    671.0514               693.5780               704.2176
 Red. masses --      5.9500                 5.9376                 1.7401
 Frc consts  --      1.5786                 1.6829                 0.5084
 IR Inten    --    122.9885                25.9756                47.7723

                     31                     32                     33
                      A                      A                      A
 Frequencies --    708.5745               775.3474               786.5711
 Red. masses --      3.7277                 1.4091                 5.9129
 Frc consts  --      1.1027                 0.4991                 2.1554
 IR Inten    --      9.7521               115.2375                86.9251

                     34                     35                     36
                      A                      A                      A
 Frequencies --    801.9537               854.7383               864.8377
 Red. masses --      2.1408                 6.2385                 1.2535
 Frc consts  --      0.8112                 2.6853                 0.5524
 IR Inten    --      2.2508               314.3243                 0.0121

                     37                     38                     39
                      A                      A                      A
 Frequencies --    943.2294               944.1009               959.0656
 Red. masses --      3.1498                 1.3934                 9.4543
 Frc consts  --      1.6511                 0.7318                 5.1236
 IR Inten    --    198.5106                 5.5358                32.9615

                     40                     41                     42
                      A                      A                      A
 Frequencies --    965.7194               984.9758              1014.1990
 Red. masses --      9.6671                 1.3520                 1.2698
 Frc consts  --      5.3119                 0.7728                 0.7695
 IR Inten    --     41.2704                 0.0164                 0.0494

                     43                     44                     45
                      A                      A                      A
 Frequencies --   1016.9197              1049.3796              1063.2913
 Red. masses --      6.1222                 2.4970                 2.5085
 Frc consts  --      3.7302                 1.6200                 1.6710
 IR Inten    --      0.8547                 3.7608                34.7849

                     46                     47                     48
                      A                      A                      A
 Frequencies --   1069.1934              1088.3813              1108.0183
 Red. masses --      1.5823                 3.3884                 7.3040
 Frc consts  --      1.0657                 2.3648                 5.2833
 IR Inten    --     24.0745                72.6428               334.9356

                     49                     50                     51
                      A                      A                      A
 Frequencies --   1111.3071              1131.5182              1175.7449
 Red. masses --      1.7101                 1.2406                 1.3651
 Frc consts  --      1.2444                 0.9358                 1.1119
 IR Inten    --     22.2554                 5.3425                 4.5148

                     52                     53                     54
                      A                      A                      A
 Frequencies --   1190.7972              1205.6018              1214.9814
 Red. masses --      1.0926                 1.2643                 1.9491
 Frc consts  --      0.9128                 1.0827                 1.6952
 IR Inten    --      0.0694                23.9272                24.9749

                     55                     56                     57
                      A                      A                      A
 Frequencies --   1223.2153              1279.3312              1291.1813
 Red. masses --      2.9381                 2.1642                 5.4399
 Frc consts  --      2.5902                 2.0870                 5.3433
 IR Inten    --     34.4442                79.9337               199.5943

                     58                     59                     60
                      A                      A                      A
 Frequencies --   1298.0347              1345.8115              1369.2208
 Red. masses --      5.9106                 2.7343                 2.1228
 Frc consts  --      5.8675                 2.9179                 2.3448
 IR Inten    --     99.9790                11.2966                 0.9280

                     61                     62                     63
                      A                      A                      A
 Frequencies --   1391.6889              1453.1035              1472.0138
 Red. masses --      1.8886                 1.1422                 1.1494
 Frc consts  --      2.1551                 1.4209                 1.4674
 IR Inten    --     36.2870                 2.1426                 2.4740

                     64                     65                     66
                      A                      A                      A
 Frequencies --   1493.4064              1502.5151              1512.6383
 Red. masses --      2.3527                 1.0477                 1.1546
 Frc consts  --      3.0915                 1.3935                 1.5566
 IR Inten    --     46.8144                 7.3923                42.2668

                     67                     68                     69
                      A                      A                      A
 Frequencies --   1514.8142              1516.9922              1522.4150
 Red. masses --      1.0727                 2.6733                 2.5760
 Frc consts  --      1.4502                 3.6247                 3.5177
 IR Inten    --     57.1903               501.8362               189.8510

                     70                     71                     72
                      A                      A                      A
 Frequencies --   1531.7463              1558.2156              1630.1534
 Red. masses --      1.0553                 3.6361                 5.4669
 Frc consts  --      1.4588                 5.2017                 8.5595
 IR Inten    --     13.3162                30.7051                96.0349

                     73                     74                     75
                      A                      A                      A
 Frequencies --   1654.1758              1667.1630              3057.9312
 Red. masses --      6.3983                 6.1557                 1.0447
 Frc consts  --     10.3152                10.0806                 5.7559
 IR Inten    --    108.6913                84.3763                55.7069

                     76                     77                     78
                      A                      A                      A
 Frequencies --   3062.5350              3145.6765              3147.5983
 Red. masses --      1.0424                 1.0933                 1.0958
 Frc consts  --      5.7606                 6.3741                 6.3963
 IR Inten    --     77.5072                48.8763                 1.6529

                     79                     80                     81
                      A                      A                      A
 Frequencies --   3184.6352              3205.6908              3208.2444
 Red. masses --      1.1046                 1.1020                 1.0858
 Frc consts  --      6.6006                 6.6725                 6.5848
 IR Inten    --     12.7796                 5.9289                 1.7100

                     82                     83                     84
                      A                      A                      A
 Frequencies --   3214.6755              3222.7412              3231.3482
 Red. masses --      1.0884                 1.0925                 1.0957
 Frc consts  --      6.6272                 6.6855                 6.7411
 IR Inten    --      5.5361                39.1432                40.3534

                     85                     86                     87
                      A                      A                      A
 Frequencies --   3238.5146              3310.5160              3581.0432
 Red. masses --      1.0951                 1.0994                 1.0777
 Frc consts  --      6.7671                 7.0990                 8.1428
 IR Inten    --     12.0977                 1.8102               230.6009

 - Thermochemistry -
 -------------------
 Temperature   298.150 Kelvin.  Pressure   1.00000 Atm.
 Atom     1 has atomic number  8 and mass  15.99491

 Molecular mass:   267.06776 amu.
 Principal axes and moments of inertia in atomic units:
                           1         2         3
     Eigenvalues --  1451.12295********************
           X            0.99993  -0.00854  -0.00768
           Y            0.00868   0.99978   0.01926
           Z            0.00751  -0.01932   0.99979
 This molecule is an asymmetric top.
 Rotational symmetry number  1.
 Warning -- assumption of classical behavior for rotation
           may cause significant error
 Rotational temperatures (Kelvin)      0.05969     0.00725     0.00697
 Rotational constants (GHZ):           1.24369     0.15111     0.14533
 Zero-point vibrational energy     629991.7 (Joules/Mol)
                                  150.57163 (Kcal/Mol)
 Warning -- explicit consideration of  25 degrees of freedom as
           vibrations may cause significant error
 Vibrational temperatures:     26.80    47.73    75.82    93.95   121.95
          (Kelvin)            123.46   181.65   251.92   290.88   303.22
                              323.32   347.44   377.70   431.84   483.20
                              508.07   554.13   569.33   593.01   612.27
                              670.39   678.26   713.16   723.16   821.76
                              907.68   951.62   965.49   997.90  1013.21
                             1019.48  1115.55  1131.70  1153.83  1229.78
                             1244.31  1357.10  1358.35  1379.88  1389.45
                             1417.16  1459.21  1463.12  1509.82  1529.84
                             1538.33  1565.94  1594.19  1598.92  1628.00
                             1691.63  1713.29  1734.59  1748.09  1759.93
                             1840.67  1857.72  1867.58  1936.32  1970.00
                             2002.33  2090.69  2117.90  2148.68  2161.78
                             2176.35  2179.48  2182.61  2190.42  2203.84
                             2241.92  2345.43  2379.99  2398.68  4399.68
                             4406.30  4525.93  4528.69  4581.98  4612.27
                             4615.95  4625.20  4636.81  4649.19  4659.50
                             4763.09  5152.32

 Zero-point correction=                           0.239951 (Hartree/Particle)
 Thermal correction to Energy=                    0.256865
 Thermal correction to Enthalpy=                  0.257810
 Thermal correction to Gibbs Free Energy=         0.193304
 Sum of electronic and zero-point Energies=          -1214.767838
 Sum of electronic and thermal Energies=             -1214.750924
 Sum of electronic and thermal Enthalpies=           -1214.749980
 Sum of electronic and thermal Free Energies=        -1214.814486

                     E (Thermal)             CV                S
                      KCal/Mol        Cal/Mol-Kelvin    Cal/Mol-Kelvin
 Total                  161.186             63.436            135.764
 Electronic               0.000              0.000              0.000
 Translational            0.889              2.981             42.646
 Rotational               0.889              2.981             33.731
 Vibrational            159.408             57.474             59.387
 Vibration     1          0.593              1.986              6.776
 Vibration     2          0.594              1.983              5.630
 Vibration     3          0.596              1.977              4.714
 Vibration     4          0.597              1.971              4.290
 Vibration     5          0.601              1.960              3.778
 Vibration     6          0.601              1.959              3.753
 Vibration     7          0.611              1.927              3.002
 Vibration     8          0.627              1.873              2.380
 Vibration     9          0.639              1.837              2.113
 Vibration    10          0.643              1.824              2.037
 Vibration    11          0.649              1.803              1.921
 Vibration    12          0.658              1.777              1.792
 Vibration    13          0.670              1.741              1.645
 Vibration    14          0.693              1.673              1.416
 Vibration    15          0.717              1.604              1.232
 Vibration    16          0.729              1.569              1.152
 Vibration    17          0.754              1.502              1.019
 Vibration    18          0.762              1.479              0.979
 Vibration    19          0.776              1.444              0.919
 Vibration    20          0.787              1.415              0.873
 Vibration    21          0.823              1.326              0.749
 Vibration    22          0.828              1.313              0.734
 Vibration    23          0.851              1.260              0.669
 Vibration    24          0.858              1.244              0.652
 Vibration    25          0.927              1.094              0.502

                           ! Non-Optimized Parameters !
 Normal termination of Gaussian 16 at Wed Sep 23 01:47:08 2020.

 ----------------------------------------------------------------------
 #p b3lyp/6-31G(d) scrf=(iefpcm,read,solvent=water) geom=allcheck guess
 =read
 ----------------------------------------------------------------------

 Structure from the checkpoint file:  "SM43_m0.n.9.pdb.xyz.mst.n.w.chk"
 -------------------
 SM43_m0.n.9.pdb.xyz
 -------------------
 Charge =  0 Multiplicity = 1

 SCF Done:  E(RB3LYP) =  -1215.00779092     A.U. after    6 cycles
 Normal termination of Gaussian 16 at Wed Sep 23 01:47:43 2020.

 -----------------------------
 #p B3LYP/6-31G* geom=allcheck
 -----------------------------

 Structure from the checkpoint file:  "SM43_m0.n.9.pdb.xyz.mst.n.w.chk"
 -------------------
 SM43_m0.n.9.pdb.xyz
 -------------------
 Charge =  0 Multiplicity = 1

 SCF Done:  E(RB3LYP) =  -1214.98367166     A.U. after   15 cycles
 Normal termination of Gaussian 16 at Wed Sep 23 01:48:21 2020.
 Gaussian 16:  ES64L-G16RevB.01 20-Dec-2017

 ----------------------------------------------------------------------
 #p mp2/aug-cc-pVDZ scf=(MaxCycle=2000,NoVarAcc,NoIncFock) maxdisk=120G
 B geom=allcheck
 ----------------------------------------------------------------------

 Structure from the checkpoint file:  "SM43_m0.n.9.pdb.xyz.mst.n.w.chk"
 -------------------
 SM43_m0.n.9.pdb.xyz
 -------------------
 Charge =  0 Multiplicity = 1

                         Standard orientation:
 ---------------------------------------------------------------------
 Center     Atomic      Atomic             Coordinates (Angstroms)
 Number     Number       Type             X           Y           Z
 ---------------------------------------------------------------------
      1          8           0       -2.882547    0.210781   -1.783596
      2         16           0       -3.068437   -0.473243   -0.503052
      3          7           0       -1.622117   -1.083807    0.106129
      4          6           0       -0.391061   -0.438162    0.005023
      5          7           0       -0.284385    0.864164   -0.178554
      6          8           0        1.100877    1.106326   -0.182726
      7          6           0        1.768601   -0.057664    0.003737
      8          6           0        3.226037   -0.001671    0.030624
      9          6           0        3.898892    1.210275   -0.194573
     10          6           0        5.290694    1.252655   -0.167807
     11          6           0        6.024879    0.091205    0.082421
     12          6           0        5.360149   -1.117424    0.307572
     13          6           0        3.969218   -1.166956    0.282870
     14          6           0        0.870699   -1.079652    0.129098
     15          7           0       -3.402434    0.701669    0.631679
     16          6           0       -4.255235    1.808046    0.162288
     17          6           0       -3.754479    0.186780    1.963269
     18          8           0       -3.970919   -1.630133   -0.441592
     19          1           0       -1.595910   -2.100992    0.064288
     20          1           0        3.327127    2.109515   -0.390112
     21          1           0        5.802061    2.192972   -0.343498
     22          1           0        7.108739    0.126764    0.102555
     23          1           0        5.925965   -2.021705    0.503746
     24          1           0        3.456892   -2.105935    0.461749
     25          1           0        1.061988   -2.128943    0.280812
     26          1           0       -3.895589    2.155684   -0.803769
     27          1           0       -4.160890    2.613938    0.891979
     28          1           0       -5.310243    1.519533    0.085097
     29          1           0       -3.033577   -0.573279    2.263530
     30          1           0       -4.766115   -0.232846    1.992130
     31          1           0       -3.692552    1.022626    2.661724
 ---------------------------------------------------------------------

 SCF Done:  E(RHF) =  -1209.52814303     A.U. after   17 cycles
 E2 =    -0.2782857837D+01 EUMP2 =    -0.12123110008701D+04

 The electronic state is 1-A.
 Alpha  occ. eigenvalues --  -92.25127 -20.65380 -20.56509 -20.56093 -15.63822
 Alpha  occ. eigenvalues --  -15.62126 -15.61388 -11.34424 -11.34231 -11.27941
 Alpha  occ. eigenvalues --  -11.27578 -11.27383 -11.26841 -11.26421 -11.26352
 Alpha  occ. eigenvalues --  -11.26096 -11.25915 -11.25414  -9.21536  -6.90091
 Alpha  occ. eigenvalues --   -6.90053  -6.90001  -1.49372  -1.47383  -1.34309
 Alpha  occ. eigenvalues --   -1.28557  -1.25260  -1.18387  -1.14437  -1.09958
 Alpha  occ. eigenvalues --   -1.03844  -1.03118  -0.98160  -0.96232  -0.88558
 Alpha  occ. eigenvalues --   -0.86799  -0.84480  -0.81629  -0.78108  -0.75493
 Alpha  occ. eigenvalues --   -0.72897  -0.71267  -0.69710  -0.67121  -0.66691
 Alpha  occ. eigenvalues --   -0.66083  -0.65316  -0.63727  -0.63185  -0.61240
 Alpha  occ. eigenvalues --   -0.61184  -0.60410  -0.58209  -0.56945  -0.56754
 Alpha  occ. eigenvalues --   -0.55533  -0.53946  -0.52890  -0.52501  -0.51285
 Alpha  occ. eigenvalues --   -0.51246  -0.50141  -0.48958  -0.47613  -0.46716
 Alpha  occ. eigenvalues --   -0.41186  -0.40543  -0.38905  -0.35612  -0.32384
 Alpha virt. eigenvalues --    0.02516   0.03191   0.03691   0.04233   0.04812
 Alpha virt. eigenvalues --    0.05224   0.05544   0.05845   0.06392   0.07055
 Alpha virt. eigenvalues --    0.07280   0.07941   0.08419   0.09359   0.09380

 Mulliken charges:
               1
     1  O   -1.134370
     2  S    3.225173
     3  N   -0.937823
     4  C   -0.271970
     5  N   -0.270257
     6  O   -1.078683
     7  C    0.234922
     8  C    1.398350
     9  C    0.424537
    10  C    0.201994
    11  C    0.538796
    12  C    0.035311
    13  C    0.615651
    14  C    1.668086
    15  N   -1.075187
    16  C    0.777395
    17  C    0.720465
    18  O   -1.134305
    19  H   -0.057332
    20  H   -0.658347
    21  H   -0.440155
    22  H   -0.434913
    23  H   -0.482090
    24  H   -0.589679
    25  H   -0.569208
    26  H   -0.153751
    27  H   -0.142555
    28  H   -0.072567
    29  H   -0.138912
    30  H   -0.048755
    31  H   -0.149821
 Sum of Mulliken charges =  -0.00000

 Dipole moment (field-independent basis, Debye):
    X=              3.7154    Y=             -1.1322    Z=              4.0818  Tot=              5.6344
 Quadrupole moment (field-independent basis, Debye-Ang):
   XX=            -96.7959   YY=           -105.6373   ZZ=           -120.4052
   XY=            -11.5693   XZ=            -12.9051   YZ=             -1.6056

 Normal termination of Gaussian 16 at Wed Sep 23 02:18:43 2020.
