 Gaussian 16, Revision B.01,

 ----------------------------------------------------------------------
 #p b3lyp/6-31G(d) opt freq NoSymm scf=(MaxCycle=2000,NoVarAcc,NoIncFoc
 k) scrf=(iefpcm,read,solvent=water)
 ----------------------------------------------------------------------

 -------------------
 SM43_m1.a.3.pdb.xyz
 -------------------
 Symbolic Z-matrix:
 Charge = -1 Multiplicity = 1

 SCF Done:  E(RB3LYP) =  -1214.53950084     A.U. after   13 cycles
 SCF Done:  E(RB3LYP) =  -1214.53940449     A.U. after    9 cycles
 SCF Done:  E(RB3LYP) =  -1214.53943206     A.U. after    8 cycles
 SCF Done:  E(RB3LYP) =  -1214.53949877     A.U. after    9 cycles
 SCF Done:  E(RB3LYP) =  -1214.53950200     A.U. after    8 cycles
 SCF Done:  E(RB3LYP) =  -1214.53942919     A.U. after    9 cycles
 SCF Done:  E(RB3LYP) =  -1214.53942925     A.U. after    8 cycles
 SCF Done:  E(RB3LYP) =  -1214.53949745     A.U. after    9 cycles
 SCF Done:  E(RB3LYP) =  -1214.53950171     A.U. after    8 cycles
 SCF Done:  E(RB3LYP) =  -1214.53950198     A.U. after    7 cycles
 SCF Done:  E(RB3LYP) =  -1214.53950118     A.U. after    8 cycles
 SCF Done:  E(RB3LYP) =  -1214.53942837     A.U. after   10 cycles
 SCF Done:  E(RB3LYP) =  -1214.53942957     A.U. after    6 cycles
 SCF Done:  E(RB3LYP) =  -1214.53949634     A.U. after    9 cycles
 SCF Done:  E(RB3LYP) =  -1214.53950115     A.U. after    8 cycles
 SCF Done:  E(RB3LYP) =  -1214.53942941     A.U. after   10 cycles
 Optimization completed.
    -- Stationary point found.
 Normal termination of Gaussian 16 at Thu Sep 24 07:51:00 2020.

 --------------------------------------------------------------------
 #P Geom=AllCheck Guess=TCheck SCRF=Check GenChk RB3LYP/6-31G(d) Freq
 --------------------------------------------------------------------

 Structure from the checkpoint file:  "SM43_m1.a.3.pdb.xyz.mst.a.w.chk"
 -------------------
 SM43_m1.a.3.pdb.xyz
 -------------------
 Charge = -1 Multiplicity = 1

 SCF Done:  E(RB3LYP) =  -1214.53942941     A.U. after    1 cycles

  Exact polarizability: 341.584   9.269 211.335   9.776 -24.695 124.250
 Approx polarizability: 347.630  17.239 265.303  11.720 -36.515 145.297

                      1                      2                      3
                      A                      A                      A
 Frequencies --     26.6032                34.2719                46.0627
 Red. masses --      4.7707                 4.6741                 2.7537
 Frc consts  --      0.0020                 0.0032                 0.0034
 IR Inten    --      4.5908                 2.8426                 1.6687

                      4                      5                      6
                      A                      A                      A
 Frequencies --     64.0827                82.2665                92.8421
 Red. masses --      5.4787                 6.4716                 4.9341
 Frc consts  --      0.0133                 0.0258                 0.0251
 IR Inten    --      2.9150                 1.7975                 3.5182

                      7                      8                      9
                      A                      A                      A
 Frequencies --    136.6163               182.0042               207.8654
 Red. masses --      7.7952                 1.9917                 1.3713
 Frc consts  --      0.0857                 0.0389                 0.0349
 IR Inten    --      0.6064                 0.6083                 1.9705

                     10                     11                     12
                      A                      A                      A
 Frequencies --    214.9752               232.8534               250.6076
 Red. masses --      1.3915                 3.7873                 6.7249
 Frc consts  --      0.0379                 0.1210                 0.2488
 IR Inten    --      0.6359                 7.3460                15.6310

                     13                     14                     15
                      A                      A                      A
 Frequencies --    269.7174               317.9277               343.3565
 Red. masses --      3.8150                 7.1436                 3.4780
 Frc consts  --      0.1635                 0.4254                 0.2416
 IR Inten    --      1.2242                11.2876                 8.1032

                     16                     17                     18
                      A                      A                      A
 Frequencies --    359.5872               396.9376               414.1949
 Red. masses --      4.0894                 7.7086                 3.0484
 Frc consts  --      0.3115                 0.7156                 0.3081
 IR Inten    --      3.5045                 6.7869                 0.2145

                     19                     20                     21
                      A                      A                      A
 Frequencies --    420.1153               464.1500               471.1328
 Red. masses --      6.8032                 5.8884                 5.6667
 Frc consts  --      0.7075                 0.7474                 0.7411
 IR Inten    --      4.0873                16.7194                22.4225

                     22                     23                     24
                      A                      A                      A
 Frequencies --    496.8624               509.5665               584.7899
 Red. masses --      4.1709                 5.8607                 8.5447
 Frc consts  --      0.6067                 0.8966                 1.7217
 IR Inten    --      7.4522                33.2913               109.3965

                     25                     26                     27
                      A                      A                      A
 Frequencies --    631.6348               644.0627               658.0050
 Red. masses --      6.4477                 7.6849                 7.2628
 Frc consts  --      1.5156                 1.8782                 1.8527
 IR Inten    --      0.1360               246.3933                 6.5572

                     28                     29                     30
                      A                      A                      A
 Frequencies --    691.2845               706.6972               715.9036
 Red. masses --      6.5540                 1.8094                 3.9189
 Frc consts  --      1.8453                 0.5324                 1.1834
 IR Inten    --     11.3122                46.4551                37.6675

                     31                     32                     33
                      A                      A                      A
 Frequencies --    737.0124               780.8263               805.5279
 Red. masses --     10.2774                 1.5021                 1.8882
 Frc consts  --      3.2891                 0.5396                 0.7219
 IR Inten    --    205.8894                96.0446                12.1366

                     34                     35                     36
                      A                      A                      A
 Frequencies --    863.9892               896.6426               922.3608
 Red. masses --      1.2537                12.2085                13.4198
 Frc consts  --      0.5514                 5.7830                 6.7266
 IR Inten    --      0.0308               197.6494                87.1473

                     37                     38                     39
                      A                      A                      A
 Frequencies --    929.3121               941.2219               958.1943
 Red. masses --      3.2886                 1.3910                 8.4556
 Frc consts  --      1.6734                 0.7260                 4.5741
 IR Inten    --    162.3473                 3.0613                29.4689

                     40                     41                     42
                      A                      A                      A
 Frequencies --    982.8933              1012.7253              1016.2536
 Red. masses --      1.3509                 1.2606                 6.1077
 Frc consts  --      0.7689                 0.7618                 3.7165
 IR Inten    --      0.0053                 0.0926                 0.2123

                     43                     44                     45
                      A                      A                      A
 Frequencies --   1035.5874              1054.8353              1058.5208
 Red. masses --      2.3119                 2.5019                 1.5354
 Frc consts  --      1.4608                 1.6402                 1.0136
 IR Inten    --     22.9389                13.0201                14.8080

                     46                     47                     48
                      A                      A                      A
 Frequencies --   1079.5239              1098.6604              1108.2216
 Red. masses --      4.6438                 6.0010                 1.5987
 Frc consts  --      3.1885                 4.2678                 1.1568
 IR Inten    --    361.1630               354.6283                21.9483

                     49                     50                     51
                      A                      A                      A
 Frequencies --   1123.1039              1174.7880              1187.7654
 Red. masses --      1.2290                 1.4230                 1.0948
 Frc consts  --      0.9134                 1.1571                 0.9100
 IR Inten    --      4.7120                14.1237                 0.3918

                     52                     53                     54
                      A                      A                      A
 Frequencies --   1203.3129              1205.8751              1219.0596
 Red. masses --      1.2329                 4.5458                 7.3536
 Frc consts  --      1.0518                 3.8946                 6.4387
 IR Inten    --     52.3344               152.2590               342.1196

                     55                     56                     57
                      A                      A                      A
 Frequencies --   1230.1157              1262.9486              1294.4166
 Red. masses --      2.3945                 1.9130                 4.8035
 Frc consts  --      2.1348                 1.7977                 4.7419
 IR Inten    --    109.9004                10.3180                 6.2919

                     58                     59                     60
                      A                      A                      A
 Frequencies --   1348.3028              1367.4186              1434.8870
 Red. masses --      3.3412                 1.9923                 6.0055
 Frc consts  --      3.5787                 2.1949                 7.2851
 IR Inten    --     31.9218                 2.1426               284.2202

                     61                     62                     63
                      A                      A                      A
 Frequencies --   1438.0896              1457.4902              1484.9808
 Red. masses --      1.1757                 1.1689                 5.0486
 Frc consts  --      1.4325                 1.4629                 6.5593
 IR Inten    --      1.5186                 7.6555               479.1252

                     64                     65                     66
                      A                      A                      A
 Frequencies --   1497.8749              1499.6707              1511.5926
 Red. masses --      1.9379                 1.2241                 1.0820
 Frc consts  --      2.5618                 1.6221                 1.4566
 IR Inten    --    136.4797               102.8628                42.8292

                     67                     68                     69
                      A                      A                      A
 Frequencies --   1514.4220              1527.6092              1540.9595
 Red. masses --      1.0487                 1.0490                 2.3725
 Frc consts  --      1.4171                 1.4423                 3.3193
 IR Inten    --      8.2935                13.1121               164.0400

                     70                     71                     72
                      A                      A                      A
 Frequencies --   1626.8148              1651.5028              1666.4368
 Red. masses --      5.7113                 6.8339                 6.1881
 Frc consts  --      8.9055                10.9818                10.1248
 IR Inten    --    107.8438               108.7576                32.3259

                     73                     74                     75
                      A                      A                      A
 Frequencies --   3020.2850              3029.5086              3117.4404
 Red. masses --      1.0520                 1.0495                 1.0858
 Frc consts  --      5.6541                 5.6750                 6.2174
 IR Inten    --     98.5767               112.7367                59.7576

                     76                     77                     78
                      A                      A                      A
 Frequencies --   3118.9215              3173.7325              3189.3028
 Red. masses --      1.0891                 1.1013                 1.0994
 Frc consts  --      6.2418                 6.5357                 6.5889
 IR Inten    --     26.7767                20.0542                13.5854

                     79                     80                     81
                      A                      A                      A
 Frequencies --   3204.8887              3212.0475              3219.7032
 Red. masses --      1.0856                 1.0884                 1.0924
 Frc consts  --      6.5699                 6.6159                 6.6720
 IR Inten    --      1.1202                 5.8664                45.2014

                     82                     83                     84
                      A                      A                      A
 Frequencies --   3228.3938              3236.5457              3302.6554
 Red. masses --      1.0958                 1.0948                 1.0984
 Frc consts  --      6.7290                 6.7571                 7.0587
 IR Inten    --     44.9773                13.6052                 1.0028

 - Thermochemistry -
 -------------------
 Temperature   298.150 Kelvin.  Pressure   1.00000 Atm.
 Atom     1 has atomic number  8 and mass  15.99491

 Molecular mass:   266.05994 amu.
 Principal axes and moments of inertia in atomic units:
                           1         2         3
     Eigenvalues --  1427.43730********************
           X            0.99978   0.00522  -0.02008
           Y           -0.00410   0.99845   0.05542
           Z            0.02034  -0.05532   0.99826
 This molecule is an asymmetric top.
 Rotational symmetry number  1.
 Warning -- assumption of classical behavior for rotation
           may cause significant error
 Rotational temperatures (Kelvin)      0.06068     0.00729     0.00708
 Rotational constants (GHZ):           1.26432     0.15182     0.14743
 Zero-point vibrational energy     594975.6 (Joules/Mol)
                                  142.20258 (Kcal/Mol)
 Warning -- explicit consideration of  24 degrees of freedom as
           vibrations may cause significant error
 Vibrational temperatures:     38.28    49.31    66.27    92.20   118.36
          (Kelvin)            133.58   196.56   261.86   299.07   309.30
                              335.02   360.57   388.06   457.43   494.01
                              517.37   571.10   595.93   604.45   667.81
                              677.85   714.87   733.15   841.38   908.78
                              926.66   946.72   994.60  1016.78  1030.03
                             1060.40  1123.43  1158.97  1243.09  1290.07
                             1327.07  1337.07  1354.21  1378.63  1414.16
                             1457.09  1462.16  1489.98  1517.67  1522.98
                             1553.19  1580.73  1594.48  1615.90  1690.26
                             1708.93  1731.30  1734.99  1753.95  1769.86
                             1817.10  1862.38  1939.91  1967.41  2064.48
                             2069.09  2097.00  2136.56  2155.11  2157.69
                             2174.84  2178.92  2197.89  2217.10  2340.62
                             2376.14  2397.63  4345.52  4358.79  4485.30
                             4487.43  4566.29  4588.70  4611.12  4621.42
                             4632.43  4644.94  4656.67  4751.78

 Zero-point correction=                           0.226614 (Hartree/Particle)
 Thermal correction to Energy=                    0.243099
 Thermal correction to Enthalpy=                  0.244043
 Thermal correction to Gibbs Free Energy=         0.180588
 Sum of electronic and zero-point Energies=          -1214.312815
 Sum of electronic and thermal Energies=             -1214.296330
 Sum of electronic and thermal Enthalpies=           -1214.295386
 Sum of electronic and thermal Free Energies=        -1214.358842

                     E (Thermal)             CV                S
                      KCal/Mol        Cal/Mol-Kelvin    Cal/Mol-Kelvin
 Total                  152.547             61.949            133.554
 Electronic               0.000              0.000              0.000
 Translational            0.889              2.981             42.635
 Rotational               0.889              2.981             33.696
 Vibrational            150.770             55.988             57.223
 Vibration     1          0.593              1.984              6.068
 Vibration     2          0.594              1.983              5.565
 Vibration     3          0.595              1.979              4.980
 Vibration     4          0.597              1.971              4.327
 Vibration     5          0.600              1.961              3.836
 Vibration     6          0.602              1.954              3.599
 Vibration     7          0.614              1.917              2.851
 Vibration     8          0.630              1.864              2.308
 Vibration     9          0.641              1.829              2.062
 Vibration    10          0.645              1.818              2.001
 Vibration    11          0.654              1.791              1.857
 Vibration    12          0.663              1.762              1.726
 Vibration    13          0.674              1.729              1.598
 Vibration    14          0.704              1.639              1.321
 Vibration    15          0.722              1.589              1.197
 Vibration    16          0.734              1.556              1.124
 Vibration    17          0.763              1.477              0.974
 Vibration    18          0.778              1.439              0.912
 Vibration    19          0.783              1.427              0.892
 Vibration    20          0.822              1.330              0.754
 Vibration    21          0.828              1.314              0.734
 Vibration    22          0.852              1.257              0.666
 Vibration    23          0.865              1.229              0.635
 Vibration    24          0.942              1.064              0.477

 Optimization completed.
    -- Stationary point found.
 Normal termination of Gaussian 16 at Thu Sep 24 07:59:09 2020.

 ----------------------------------------------------------------------
 #p b3lyp/6-31G(d) scrf=(iefpcm,read,solvent=water) geom=allcheck guess
 =read
 ----------------------------------------------------------------------

 Structure from the checkpoint file:  "SM43_m1.a.3.pdb.xyz.mst.a.w.chk"
 -------------------
 SM43_m1.a.3.pdb.xyz
 -------------------
 Charge = -1 Multiplicity = 1

 SCF Done:  E(RB3LYP) =  -1214.53943513     A.U. after    6 cycles
 Normal termination of Gaussian 16 at Thu Sep 24 07:59:46 2020.

 -----------------------------
 #p B3LYP/6-31G* geom=allcheck
 -----------------------------

 Structure from the checkpoint file:  "SM43_m1.a.3.pdb.xyz.mst.a.w.chk"
 -------------------
 SM43_m1.a.3.pdb.xyz
 -------------------
 Charge = -1 Multiplicity = 1

 SCF Done:  E(RB3LYP) =  -1214.43849560     A.U. after   15 cycles
 Normal termination of Gaussian 16 at Thu Sep 24 08:00:25 2020.
 Gaussian 16:  ES64L-G16RevB.01 20-Dec-2017

 ----------------------------------------------------------------------
 #p mp2/aug-cc-pVDZ scf=(MaxCycle=2000,NoVarAcc,NoIncFock) maxdisk=120G
 B geom=allcheck
 ----------------------------------------------------------------------

 Structure from the checkpoint file:  "SM43_m1.a.3.pdb.xyz.mst.a.w.chk"
 -------------------
 SM43_m1.a.3.pdb.xyz
 -------------------
 Charge = -1 Multiplicity = 1

                         Standard orientation:
 ---------------------------------------------------------------------
 Center     Atomic      Atomic             Coordinates (Angstroms)
 Number     Number       Type             X           Y           Z
 ---------------------------------------------------------------------
      1          8           0       -3.019834    0.358702   -1.741770
      2         16           0       -3.014636   -0.456780   -0.502936
      3          7           0       -1.622142   -1.158529   -0.135636
      4          6           0       -0.449752   -0.442481   -0.171435
      5          7           0       -0.309039    0.866513   -0.383708
      6          8           0        1.091248    1.109404   -0.322772
      7          6           0        1.736495   -0.056451   -0.073781
      8          6           0        3.194771   -0.008775    0.015996
      9          6           0        3.885826    1.195983   -0.195395
     10          6           0        5.276129    1.232935   -0.114334
     11          6           0        5.995378    0.072150    0.177964
     12          6           0        5.314499   -1.129862    0.390513
     13          6           0        3.925104   -1.172912    0.310997
     14          6           0        0.827973   -1.064174    0.034466
     15          7           0       -3.319949    0.682592    0.748790
     16          6           0       -4.436365    1.588098    0.447032
     17          6           0       -3.454562    0.061792    2.070637
     18          8           0       -4.047341   -1.522421   -0.454931
     19          1           0        3.327428    2.096066   -0.424123
     20          1           0        5.798073    2.169262   -0.280979
     21          1           0        7.077977    0.102848    0.239910
     22          1           0        5.866862   -2.035136    0.618922
     23          1           0        3.402499   -2.108527    0.478373
     24          1           0        1.008369   -2.109961    0.223901
     25          1           0       -4.283088    2.032201   -0.535137
     26          1           0       -4.441759    2.378366    1.202172
     27          1           0       -5.411597    1.080044    0.467986
     28          1           0       -2.610374   -0.604002    2.249299
     29          1           0       -4.389182   -0.505720    2.178970
     30          1           0       -3.438699    0.855715    2.821375
 ---------------------------------------------------------------------

 SCF Done:  E(RHF) =  -1208.98580609     A.U. after   18 cycles
 E2 =    -0.2796497177D+01 EUMP2 =    -0.12117823032691D+04

 The electronic state is 1-A.
 Alpha  occ. eigenvalues --  -92.05900 -20.50384 -20.37908 -20.37861 -15.45999
 Alpha  occ. eigenvalues --  -15.45242 -15.39056 -11.20127 -11.17852 -11.17682
 Alpha  occ. eigenvalues --  -11.17326 -11.17212 -11.17075 -11.16990 -11.16528
 Alpha  occ. eigenvalues --  -11.13792 -11.13695 -11.11453  -9.02361  -6.70915
 Alpha  occ. eigenvalues --   -6.70859  -6.70831  -1.33836  -1.28156  -1.14988
 Alpha  occ. eigenvalues --   -1.09312  -1.08595  -1.07279  -0.98544  -0.95893
 Alpha  occ. eigenvalues --   -0.94350  -0.91069  -0.83715  -0.78555  -0.77138
 Alpha  occ. eigenvalues --   -0.75599  -0.69524  -0.67694  -0.63955  -0.60539
 Alpha  occ. eigenvalues --   -0.58234  -0.55385  -0.54793  -0.53534  -0.51770
 Alpha  occ. eigenvalues --   -0.51621  -0.51298  -0.50715  -0.48905  -0.47320
 Alpha  occ. eigenvalues --   -0.46087  -0.44246  -0.43543  -0.43075  -0.42918
 Alpha  occ. eigenvalues --   -0.42533  -0.41307  -0.39553  -0.36007  -0.33731
 Alpha  occ. eigenvalues --   -0.33137  -0.32708  -0.31314  -0.29685  -0.29044
 Alpha  occ. eigenvalues --   -0.26542  -0.25867  -0.24730  -0.20755  -0.18861
 Alpha virt. eigenvalues --    0.08731   0.09806   0.10859   0.12122   0.12656
 Alpha virt. eigenvalues --    0.13570   0.13711   0.14420   0.15532   0.15709
 Alpha virt. eigenvalues --    0.16207   0.16590   0.16837   0.17837   0.17947

 Mulliken charges:
               1
     1  O   -1.236769
     2  S    3.070900
     3  N   -1.214606
     4  C   -0.250981
     5  N   -0.287859
     6  O   -1.086415
     7  C    0.266744
     8  C    1.289726
     9  C    0.507732
    10  C    0.167039
    11  C    0.566053
    12  C   -0.008929
    13  C    0.627525
    14  C    1.559083
    15  N   -1.195573
    16  C    0.769894
    17  C    0.729559
    18  O   -1.231874
    19  H   -0.658392
    20  H   -0.455848
    21  H   -0.454275
    22  H   -0.499079
    23  H   -0.581011
    24  H   -0.605152
    25  H   -0.162762
    26  H   -0.170558
    27  H   -0.048683
    28  H   -0.184251
    29  H   -0.041981
    30  H   -0.179256
 Sum of Mulliken charges =  -1.00000

 Dipole moment (field-independent basis, Debye):
    X=             10.4009    Y=              1.3295    Z=              4.7895  Tot=             11.5276
 Quadrupole moment (field-independent basis, Debye-Ang):
   XX=           -153.9204   YY=           -123.0012   ZZ=           -126.8497
   XY=            -14.7797   XZ=            -13.8182   YZ=             -1.2304

 Normal termination of Gaussian 16 at Thu Sep 24 08:31:37 2020.
