 Gaussian 16, Revision B.01,

 ----------------------------------------------------------------------
 #p b3lyp/6-31G(d) opt freq NoSymm scf=(MaxCycle=2000,NoVarAcc,NoIncFoc
 k) scrf=(iefpcm,read,solvent=water)
 ----------------------------------------------------------------------

 -------------------
 SM43_m3.b.7.pdb.xyz
 -------------------
 Symbolic Z-matrix:
 Charge =  2 Multiplicity = 1

 SCF Done:  E(RB3LYP) =  -1215.87230812     A.U. after   13 cycles
 SCF Done:  E(RB3LYP) =  -1215.87209720     A.U. after   10 cycles
 SCF Done:  E(RB3LYP) =  -1215.87215021     A.U. after    9 cycles
 SCF Done:  E(RB3LYP) =  -1215.87230370     A.U. after   10 cycles
 SCF Done:  E(RB3LYP) =  -1215.87231012     A.U. after    9 cycles
 SCF Done:  E(RB3LYP) =  -1215.87211543     A.U. after   10 cycles
 SCF Done:  E(RB3LYP) =  -1215.87213369     A.U. after    8 cycles
 SCF Done:  E(RB3LYP) =  -1215.87230149     A.U. after   10 cycles
 SCF Done:  E(RB3LYP) =  -1215.87230973     A.U. after    9 cycles
 SCF Done:  E(RB3LYP) =  -1215.87231019     A.U. after    8 cycles
 SCF Done:  E(RB3LYP) =  -1215.87231000     A.U. after    9 cycles
 SCF Done:  E(RB3LYP) =  -1215.87212777     A.U. after   10 cycles
 SCF Done:  E(RB3LYP) =  -1215.87212893     A.U. after    8 cycles
 SCF Done:  E(RB3LYP) =  -1215.87230040     A.U. after   10 cycles
 SCF Done:  E(RB3LYP) =  -1215.87230997     A.U. after    9 cycles
 SCF Done:  E(RB3LYP) =  -1215.87212691     A.U. after   10 cycles
 Optimization completed.
    -- Stationary point found.
 Normal termination of Gaussian 16 at Thu Sep 24 07:40:06 2020.

 --------------------------------------------------------------------
 #P Geom=AllCheck Guess=TCheck SCRF=Check GenChk RB3LYP/6-31G(d) Freq
 --------------------------------------------------------------------

 Structure from the checkpoint file:  "SM43_m3.b.7.pdb.xyz.mst.b.w.chk"
 -------------------
 SM43_m3.b.7.pdb.xyz
 -------------------
 Charge =  2 Multiplicity = 1

 SCF Done:  E(RB3LYP) =  -1215.87212691     A.U. after    1 cycles

  Exact polarizability: 335.979 -23.243 216.785  21.338   2.543 118.223
 Approx polarizability: 349.721 -25.242 265.968  30.375   5.058 137.572

                      1                      2                      3
                      A                      A                      A
 Frequencies --     18.8633                40.5457                58.4907
 Red. masses --      4.1414                 4.0978                 5.8152
 Frc consts  --      0.0009                 0.0040                 0.0117
 IR Inten    --      4.2162                 6.3418                 4.1325

                      4                      5                      6
                      A                      A                      A
 Frequencies --     65.8504                79.4103                94.7031
 Red. masses --      3.2696                 5.3191                 4.6195
 Frc consts  --      0.0084                 0.0198                 0.0244
 IR Inten    --      0.1134                 3.2515                 2.4613

                      7                      8                      9
                      A                      A                      A
 Frequencies --    159.2463               179.2695               210.1559
 Red. masses --      6.0321                 4.9237                 2.7540
 Frc consts  --      0.0901                 0.0932                 0.0717
 IR Inten    --      4.0030                 2.9346                10.1638

                     10                     11                     12
                      A                      A                      A
 Frequencies --    230.3041               239.1906               252.6459
 Red. masses --      1.4596                 2.1901                 6.1117
 Frc consts  --      0.0456                 0.0738                 0.2298
 IR Inten    --      1.3019                 2.6358                14.3963

                     13                     14                     15
                      A                      A                      A
 Frequencies --    258.7319               284.8846               304.2754
 Red. masses --      1.5283                 3.6665                 4.8645
 Frc consts  --      0.0603                 0.1753                 0.2654
 IR Inten    --      0.6266                49.7208                 2.8347

                     16                     17                     18
                      A                      A                      A
 Frequencies --    316.1029               355.5208               377.4848
 Red. masses --      3.0626                 5.2486                 2.1020
 Frc consts  --      0.1803                 0.3909                 0.1765
 IR Inten    --      2.7228                 2.9698                91.1360

                     19                     20                     21
                      A                      A                      A
 Frequencies --    403.3458               407.2223               420.7760
 Red. masses --      1.8321                 2.8872                 1.7685
 Frc consts  --      0.1756                 0.2821                 0.1845
 IR Inten    --     59.3006                 8.0072               243.2430

                     22                     23                     24
                      A                      A                      A
 Frequencies --    445.3755               470.0175               491.7917
 Red. masses --      2.9857                 4.6624                 2.9635
 Frc consts  --      0.3489                 0.6069                 0.4223
 IR Inten    --     17.5186                10.4488                21.4706

                     25                     26                     27
                      A                      A                      A
 Frequencies --    501.1018               567.6478               595.8095
 Red. masses --      5.4783                 6.0553                 6.6393
 Frc consts  --      0.8105                 1.1496                 1.3886
 IR Inten    --     23.0697               101.4218               308.7859

                     28                     29                     30
                      A                      A                      A
 Frequencies --    628.4620               657.0028               687.6652
 Red. masses --      6.4515                 6.1035                 6.5514
 Frc consts  --      1.5013                 1.5523                 1.8253
 IR Inten    --      0.4797                18.8071                20.1723

                     31                     32                     33
                      A                      A                      A
 Frequencies --    697.5460               707.8526               765.5709
 Red. masses --      1.9067                 3.0025                 5.4037
 Frc consts  --      0.5466                 0.8864                 1.8660
 IR Inten    --     43.3901                12.2354                36.8751

                     34                     35                     36
                      A                      A                      A
 Frequencies --    788.4374               831.4656               858.9665
 Red. masses --      1.7023                 1.6097                 1.2577
 Frc consts  --      0.6235                 0.6557                 0.5467
 IR Inten    --     68.5910                31.5562                 0.3686

                     37                     38                     39
                      A                      A                      A
 Frequencies --    863.0941               886.9400               950.5700
 Red. masses --      3.6168                 6.1435                 5.9921
 Frc consts  --      1.5874                 2.8474                 3.1901
 IR Inten    --     88.8220               256.6150                29.8759

                     40                     41                     42
                      A                      A                      A
 Frequencies --    955.0900               988.8192               999.8393
 Red. masses --      1.4472                 1.3582                 2.7622
 Frc consts  --      0.7778                 0.7824                 1.6269
 IR Inten    --      3.2760                 0.0669                36.9515

                     43                     44                     45
                      A                      A                      A
 Frequencies --   1016.7877              1021.5591              1041.3841
 Red. masses --      5.9090                 1.2984                 4.1946
 Frc consts  --      3.5994                 0.7984                 2.6802
 IR Inten    --      5.9379                 0.0255                19.0506

                     46                     47                     48
                      A                      A                      A
 Frequencies --   1054.3991              1065.6201              1068.4741
 Red. masses --      3.1299                 1.1456                 1.7888
 Frc consts  --      2.0502                 0.7664                 1.2032
 IR Inten    --     14.9269                14.1337                57.1646

                     49                     50                     51
                      A                      A                      A
 Frequencies --   1113.7019              1149.4686              1153.4932
 Red. masses --      1.5724                 4.5990                 1.6503
 Frc consts  --      1.1491                 3.5802                 1.2937
 IR Inten    --     21.9777               274.4791                16.9703

                     52                     53                     54
                      A                      A                      A
 Frequencies --   1165.4355              1188.6463              1193.7193
 Red. masses --      3.9091                 1.7798                 1.1002
 Frc consts  --      3.1282                 1.4816                 0.9237
 IR Inten    --     61.6311               152.7240                 0.2235

                     55                     56                     57
                      A                      A                      A
 Frequencies --   1206.1179              1238.4607              1257.2116
 Red. masses --      1.1473                 1.8475                 1.6008
 Frc consts  --      0.9833                 1.6695                 1.4907
 IR Inten    --     21.7747                44.5808                 1.6458

                     58                     59                     60
                      A                      A                      A
 Frequencies --   1265.6390              1346.0812              1372.4281
 Red. masses --      2.8659                 1.7974                 3.5280
 Frc consts  --      2.7048                 1.9188                 3.9152
 IR Inten    --      5.3962                 6.8124                12.6665

                     61                     62                     63
                      A                      A                      A
 Frequencies --   1374.2922              1390.7239              1421.4904
 Red. masses --      2.1368                 2.4929                 1.3696
 Frc consts  --      2.3778                 2.8408                 1.6305
 IR Inten    --     17.9720               132.3834               130.0122

                     64                     65                     66
                      A                      A                      A
 Frequencies --   1436.9210              1445.9448              1459.4162
 Red. masses --      1.1875                 1.1896                 2.2965
 Frc consts  --      1.4446                 1.4653                 2.8819
 IR Inten    --     21.1655                83.6396               753.5353

                     67                     68                     69
                      A                      A                      A
 Frequencies --   1477.7793              1493.1403              1499.0956
 Red. masses --      1.1522                 2.2908                 1.0527
 Frc consts  --      1.4825                 3.0091                 1.3938
 IR Inten    --     14.1304                22.9051                29.1062

                     70                     71                     72
                      A                      A                      A
 Frequencies --   1507.7785              1516.0391              1521.9152
 Red. masses --      1.0440                 1.0447                 2.3674
 Frc consts  --      1.3984                 1.4147                 3.2307
 IR Inten    --      6.0570                30.1016               434.3239

                     73                     74                     75
                      A                      A                      A
 Frequencies --   1534.0061              1540.7621              1593.8649
 Red. masses --      1.0477                 2.6077                 5.3715
 Frc consts  --      1.4526                 3.6473                 8.0399
 IR Inten    --     71.6895               278.8144                26.9994

                     76                     77                     78
                      A                      A                      A
 Frequencies --   1635.1800              1646.5970              1658.7911
 Red. masses --      5.0207                 5.8696                 5.5644
 Frc consts  --      7.9094                 9.3764                 9.0209
 IR Inten    --    415.2513               532.0116                58.1427

                     79                     80                     81
                      A                      A                      A
 Frequencies --   3130.1583              3131.9206              3217.4256
 Red. masses --      1.0294                 1.0302                 1.0866
 Frc consts  --      5.9428                 5.9540                 6.6273
 IR Inten    --      2.6392                 2.2667                 0.1245

                     82                     83                     84
                      A                      A                      A
 Frequencies --   3225.1520              3226.3354              3227.8954
 Red. masses --      1.0888                 1.1083                 1.1096
 Frc consts  --      6.6727                 6.7970                 6.8114
 IR Inten    --      5.7132                 1.0446                 2.7935

                     85                     86                     87
                      A                      A                      A
 Frequencies --   3232.8390              3238.5577              3243.5203
 Red. masses --      1.0917                 1.0947                 1.1106
 Frc consts  --      6.7226                 6.7650                 6.8841
 IR Inten    --     21.6160                24.5505                 1.7515

                     88                     89                     90
                      A                      A                      A
 Frequencies --   3243.8799              3248.7481              3350.4823
 Red. masses --      1.0976                 1.1094                 1.0783
 Frc consts  --      6.8049                 6.8988                 7.1318
 IR Inten    --     18.4201                 1.2049               285.6747

                     91                     92                     93
                      A                      A                      A
 Frequencies --   3357.6683              3474.9704              3530.0132
 Red. masses --      1.0993                 1.0782                 1.0881
 Frc consts  --      7.3018                 7.6713                 7.9886
 IR Inten    --     29.3438               395.8064               885.3682

 - Thermochemistry -
 -------------------
 Temperature   298.150 Kelvin.  Pressure   1.00000 Atm.
 Atom     1 has atomic number  8 and mass  15.99491

 Molecular mass:   269.08341 amu.
 Principal axes and moments of inertia in atomic units:
                           1         2         3
     Eigenvalues --  1826.46186********************
           X            1.00000  -0.00053  -0.00311
           Y            0.00120   0.97547   0.22015
           Z            0.00292  -0.22015   0.97546
 This molecule is an asymmetric top.
 Rotational symmetry number  1.
 Warning -- assumption of classical behavior for rotation
           may cause significant error
 Rotational temperatures (Kelvin)      0.04742     0.00780     0.00743
 Rotational constants (GHZ):           0.98811     0.16258     0.15475
 Zero-point vibrational energy     701298.9 (Joules/Mol)
                                  167.61446 (Kcal/Mol)
 Warning -- explicit consideration of  27 degrees of freedom as
           vibrations may cause significant error
 Vibrational temperatures:     27.14    58.34    84.16    94.74   114.25
          (Kelvin)            136.26   229.12   257.93   302.37   331.36
                              344.14   363.50   372.26   409.89   437.78
                              454.80   511.52   543.12   580.32   585.90
                              605.40   640.80   676.25   707.58   720.97
                              816.72   857.24   904.22   945.28   989.40
                             1003.61  1018.44  1101.49  1134.39  1196.29
                             1235.86  1241.80  1276.11  1367.66  1374.16
                             1422.69  1438.55  1462.93  1469.80  1498.32
                             1517.05  1533.19  1537.30  1602.37  1653.83
                             1659.62  1676.80  1710.20  1717.50  1735.33
                             1781.87  1808.85  1820.97  1936.71  1974.62
                             1977.30  2000.94  2045.21  2067.41  2080.39
                             2099.77  2126.19  2148.30  2156.86  2169.36
                             2181.24  2189.70  2207.09  2216.81  2293.22
                             2352.66  2369.09  2386.63  4503.60  4506.14
                             4629.16  4640.27  4641.98  4644.22  4651.33
                             4659.56  4666.70  4667.22  4674.22  4820.60
                             4830.94  4999.71  5078.90

 Zero-point correction=                           0.267111 (Hartree/Particle)
 Thermal correction to Energy=                    0.284401
 Thermal correction to Enthalpy=                  0.285345
 Thermal correction to Gibbs Free Energy=         0.220655
 Sum of electronic and zero-point Energies=          -1215.605016
 Sum of electronic and thermal Energies=             -1215.587726
 Sum of electronic and thermal Enthalpies=           -1215.586782
 Sum of electronic and thermal Free Energies=        -1215.651472

                     E (Thermal)             CV                S
                      KCal/Mol        Cal/Mol-Kelvin    Cal/Mol-Kelvin
 Total                  178.464             65.565            136.151
 Electronic               0.000              0.000              0.000
 Translational            0.889              2.981             42.669
 Rotational               0.889              2.981             33.824
 Vibrational            176.687             59.603             59.658
 Vibration     1          0.593              1.986              6.750
 Vibration     2          0.594              1.981              5.232
 Vibration     3          0.596              1.974              4.507
 Vibration     4          0.597              1.971              4.274
 Vibration     5          0.600              1.963              3.905
 Vibration     6          0.603              1.953              3.561
 Vibration     7          0.621              1.892              2.559
 Vibration     8          0.629              1.868              2.336
 Vibration     9          0.642              1.825              2.042
 Vibration    10          0.652              1.795              1.877
 Vibration    11          0.657              1.781              1.809
 Vibration    12          0.664              1.758              1.712
 Vibration    13          0.668              1.748              1.670
 Vibration    14          0.683              1.702              1.504
 Vibration    15          0.695              1.666              1.393
 Vibration    16          0.703              1.643              1.330
 Vibration    17          0.731              1.564              1.142
 Vibration    18          0.748              1.518              1.049
 Vibration    19          0.769              1.463              0.950
 Vibration    20          0.772              1.455              0.936
 Vibration    21          0.783              1.425              0.889
 Vibration    22          0.805              1.371              0.810
 Vibration    23          0.827              1.317              0.738
 Vibration    24          0.848              1.268              0.679
 Vibration    25          0.856              1.248              0.655
 Vibration    26          0.924              1.101              0.509
 Vibration    27          0.954              1.041              0.457

 Optimization completed.
    -- Stationary point found.
 Normal termination of Gaussian 16 at Thu Sep 24 07:49:30 2020.

 ----------------------------------------------------------------------
 #p b3lyp/6-31G(d) scrf=(iefpcm,read,solvent=water) geom=allcheck guess
 =read
 ----------------------------------------------------------------------

 Structure from the checkpoint file:  "SM43_m3.b.7.pdb.xyz.mst.b.w.chk"
 -------------------
 SM43_m3.b.7.pdb.xyz
 -------------------
 Charge =  2 Multiplicity = 1

 SCF Done:  E(RB3LYP) =  -1215.87189284     A.U. after    8 cycles
 Normal termination of Gaussian 16 at Thu Sep 24 07:50:09 2020.

 -----------------------------
 #p B3LYP/6-31G* geom=allcheck
 -----------------------------

 Structure from the checkpoint file:  "SM43_m3.b.7.pdb.xyz.mst.b.w.chk"
 -------------------
 SM43_m3.b.7.pdb.xyz
 -------------------
 Charge =  2 Multiplicity = 1

 SCF Done:  E(RB3LYP) =  -1215.56940571     A.U. after   16 cycles
 Normal termination of Gaussian 16 at Thu Sep 24 07:50:54 2020.
 Gaussian 16:  ES64L-G16RevB.01 20-Dec-2017

 ----------------------------------------------------------------------
 #p mp2/aug-cc-pVDZ scf=(MaxCycle=2000,NoVarAcc,NoIncFock) maxdisk=120G
 B geom=allcheck
 ----------------------------------------------------------------------

 Structure from the checkpoint file:  "SM43_m3.b.7.pdb.xyz.mst.b.w.chk"
 -------------------
 SM43_m3.b.7.pdb.xyz
 -------------------
 Charge =  2 Multiplicity = 1

                         Standard orientation:
 ---------------------------------------------------------------------
 Center     Atomic      Atomic             Coordinates (Angstroms)
 Number     Number       Type             X           Y           Z
 ---------------------------------------------------------------------
      1          8           0       -3.879848    0.306351   -1.575886
      2         16           0       -2.814473   -0.126946   -0.702617
      3          7           0       -1.776476    1.148144   -0.477679
      4          6           0       -0.422397    1.064667   -0.238238
      5          7           0        0.242017    2.140351    0.172764
      6          8           0        1.571597    1.860668    0.278064
      7          6           0        1.716571    0.549476   -0.042189
      8          6           0        3.057351    0.003444    0.002044
      9          6           0        4.133650    0.778127    0.468851
     10          6           0        5.413448    0.235083    0.491755
     11          6           0        5.628710   -1.073698    0.051620
     12          6           0        4.559950   -1.845781   -0.412196
     13          6           0        3.276080   -1.313472   -0.437767
     14          6           0        0.493113    0.008038   -0.370617
     15          7           0       -3.633572   -0.249792    0.965770
     16          6           0       -4.933897   -0.993664    0.838805
     17          6           0       -2.721121   -0.850353    1.990802
     18          8           0       -2.059013   -1.350147   -0.852120
     19          1           0       -2.224965    2.070906   -0.463059
     20          1           0        3.963139    1.791993    0.809996
     21          1           0        6.243283    0.831772    0.852502
     22          1           0        6.629176   -1.491379    0.069400
     23          1           0        4.727822   -2.860008   -0.755916
     24          1           0        2.447130   -1.908521   -0.802782
     25          1           0        0.272353   -0.998861   -0.673628
     26          1           0       -5.534081   -0.515170    0.070121
     27          1           0       -5.425509   -0.924105    1.807450
     28          1           0       -4.721900   -2.031305    0.590695
     29          1           0       -1.859801   -0.202942    2.132737
     30          1           0       -2.421229   -1.839114    1.652845
     31          1           0       -3.287921   -0.916027    2.917638
     32          1           0       -3.846428    0.729593    1.232307
     33          1           0       -0.023914    3.117194    0.317901
 ---------------------------------------------------------------------

 SCF Done:  E(RHF) =  -1210.11071859     A.U. after   16 cycles
 E2 =    -0.2766659633D+01 EUMP2 =    -0.12128773782224D+04

 The electronic state is 1-A.
 Alpha  occ. eigenvalues --  -92.58602 -20.97128 -20.89840 -20.89210 -16.01794
 Alpha  occ. eigenvalues --  -15.98718 -15.97419 -11.69359 -11.63842 -11.58128
 Alpha  occ. eigenvalues --  -11.56844 -11.53083 -11.48845 -11.47864 -11.47522
 Alpha  occ. eigenvalues --  -11.46390 -11.45014 -11.44899  -9.54932  -7.23462
 Alpha  occ. eigenvalues --   -7.23433  -7.23392  -1.83480  -1.80644  -1.68210
 Alpha  occ. eigenvalues --   -1.62400  -1.61010  -1.50034  -1.41457  -1.37182
 Alpha  occ. eigenvalues --   -1.29009  -1.26660  -1.26561  -1.23954  -1.20248
 Alpha  occ. eigenvalues --   -1.15993  -1.15162  -1.11722  -1.08956  -1.05217
 Alpha  occ. eigenvalues --   -1.03568  -1.02483  -1.01612  -0.99839  -0.98757
 Alpha  occ. eigenvalues --   -0.95942  -0.95037  -0.93549  -0.91325  -0.90176
 Alpha  occ. eigenvalues --   -0.88877  -0.87779  -0.87382  -0.86786  -0.85812
 Alpha  occ. eigenvalues --   -0.84610  -0.83958  -0.82965  -0.81487  -0.81319
 Alpha  occ. eigenvalues --   -0.80633  -0.80121  -0.78938  -0.75528  -0.72565
 Alpha  occ. eigenvalues --   -0.72286  -0.71119  -0.67379  -0.55417  -0.55178
 Alpha virt. eigenvalues --   -0.21068  -0.20382  -0.16622  -0.16038  -0.15760
 Alpha virt. eigenvalues --   -0.14509  -0.13346  -0.13127  -0.12383  -0.12165
 Alpha virt. eigenvalues --   -0.11838  -0.10643  -0.10441  -0.09996  -0.09485

 Mulliken charges:
               1
     1  O   -0.947921
     2  S    3.034335
     3  N   -0.881833
     4  C   -0.021142
     5  N   -0.054916
     6  O   -1.025294
     7  C   -0.188501
     8  C    1.696612
     9  C    0.303214
    10  C    0.270894
    11  C    0.534148
    12  C    0.150651
    13  C    0.562619
    14  C    2.224817
    15  N   -0.810644
    16  C    0.803004
    17  C    0.829307
    18  O   -1.035705
    19  H   -0.074662
    20  H   -0.655274
    21  H   -0.412990
    22  H   -0.395529
    23  H   -0.454302
    24  H   -0.572357
    25  H   -0.627646
    26  H   -0.060271
    27  H   -0.085343
    28  H   -0.034360
    29  H   -0.177065
    30  H   -0.027659
    31  H   -0.097642
    32  H    0.195845
    33  H    0.035609
 Sum of Mulliken charges =   2.00000

 Dipole moment (field-independent basis, Debye):
    X=             -8.5636    Y=              3.3636    Z=              6.2749  Tot=             11.1366
 Quadrupole moment (field-independent basis, Debye-Ang):
   XX=             22.3917   YY=            -76.1350   ZZ=           -101.5674
   XY=             -4.2452   XZ=            -22.8825   YZ=              0.4636

 Normal termination of Gaussian 16 at Thu Sep 24 08:40:14 2020.
