 Gaussian 16, Revision B.01,

 ----------------------------------------------------------------------
 #p b3lyp/6-31G(d) opt freq NoSymm scf=(MaxCycle=2000,NoVarAcc,NoIncFoc
 k) scrf=(iefpcm,read,solvent=water)
 ----------------------------------------------------------------------

 -------------------
 SM43_m2.b.3.pdb.xyz
 -------------------
 Symbolic Z-matrix:
 Charge =  1 Multiplicity = 1

 SCF Done:  E(RB3LYP) =  -1215.44366035     A.U. after   13 cycles
 SCF Done:  E(RB3LYP) =  -1215.44359348     A.U. after   10 cycles
 SCF Done:  E(RB3LYP) =  -1215.44360569     A.U. after   10 cycles
 SCF Done:  E(RB3LYP) =  -1215.44373686     A.U. after   10 cycles
 SCF Done:  E(RB3LYP) =  -1215.44365047     A.U. after   10 cycles
 SCF Done:  E(RB3LYP) =  -1215.44367181     A.U. after    9 cycles
 SCF Done:  E(RB3LYP) =  -1215.44373366     A.U. after   10 cycles
 SCF Done:  E(RB3LYP) =  -1215.44373680     A.U. after    8 cycles
 SCF Done:  E(RB3LYP) =  -1215.44365454     A.U. after   10 cycles
 SCF Done:  E(RB3LYP) =  -1215.44367820     A.U. after    9 cycles
 SCF Done:  E(RB3LYP) =  -1215.44373401     A.U. after    3 cycles
 SCF Done:  E(RB3LYP) =  -1215.44373401     A.U. after    2 cycles
 SCF Done:  E(RB3LYP) =  -1215.44367718     A.U. after   10 cycles
 SCF Done:  E(RB3LYP) =  -1215.44366953     A.U. after    9 cycles
 SCF Done:  E(RB3LYP) =  -1215.44367695     A.U. after    9 cycles
 SCF Done:  E(RB3LYP) =  -1215.44367684     A.U. after    6 cycles
 Optimization completed.
    -- Stationary point found.
 Normal termination of Gaussian 16 at Thu Sep 24 07:44:42 2020.

 --------------------------------------------------------------------
 #P Geom=AllCheck Guess=TCheck SCRF=Check GenChk RB3LYP/6-31G(d) Freq
 --------------------------------------------------------------------

 Structure from the checkpoint file:  "SM43_m2.b.3.pdb.xyz.mst.b.w.chk"
 -------------------
 SM43_m2.b.3.pdb.xyz
 -------------------
 Charge =  1 Multiplicity = 1

 SCF Done:  E(RB3LYP) =  -1215.44367684     A.U. after    1 cycles

  Exact polarizability: 328.442   2.868 206.980   5.918 -24.792 121.242
 Approx polarizability: 340.388  10.202 259.402   6.834 -36.337 143.772

                      1                      2                      3
                      A                      A                      A
 Frequencies --     24.2640                35.2078                69.8979
 Red. masses --      3.8154                 6.5162                 5.1960
 Frc consts  --      0.0013                 0.0048                 0.0150
 IR Inten    --      2.4187                 6.8023                 3.7680

                      4                      5                      6
                      A                      A                      A
 Frequencies --     82.7577                88.4902               101.0041
 Red. masses --      4.6794                 3.7364                 4.3284
 Frc consts  --      0.0189                 0.0172                 0.0260
 IR Inten    --      6.2450                 3.3801                 9.0413

                      7                      8                      9
                      A                      A                      A
 Frequencies --    144.8883               172.7466               185.8559
 Red. masses --      7.0058                 2.2702                 1.0513
 Frc consts  --      0.0867                 0.0399                 0.0214
 IR Inten    --      3.1095                 8.0811                 0.1574

                     10                     11                     12
                      A                      A                      A
 Frequencies --    200.7034               221.9799               236.2176
 Red. masses --      1.8712                 3.8045                 5.4066
 Frc consts  --      0.0444                 0.1105                 0.1777
 IR Inten    --      0.2924                 0.6985                 7.9151

                     13                     14                     15
                      A                      A                      A
 Frequencies --    256.1430               277.0223               289.2288
 Red. masses --      3.4370                 3.6190                 5.9065
 Frc consts  --      0.1329                 0.1636                 0.2911
 IR Inten    --      1.2318                45.4921                10.4315

                     16                     17                     18
                      A                      A                      A
 Frequencies --    353.3067               362.3635               397.5680
 Red. masses --      4.5754                 2.3101                 5.2852
 Frc consts  --      0.3365                 0.1787                 0.4922
 IR Inten    --      8.0480                94.8101                16.7307

                     19                     20                     21
                      A                      A                      A
 Frequencies --    411.6460               414.4985               432.8797
 Red. masses --      2.9631                 3.5622                 2.0301
 Frc consts  --      0.2958                 0.3606                 0.2241
 IR Inten    --      0.0720                55.3841                25.5460

                     22                     23                     24
                      A                      A                      A
 Frequencies --    458.6412               492.3847               504.9935
 Red. masses --      6.2001                 4.7285                 4.1838
 Frc consts  --      0.7684                 0.6754                 0.6286
 IR Inten    --     31.2207                29.8649                 0.8582

                     25                     26                     27
                      A                      A                      A
 Frequencies --    568.0803               581.4392               630.3113
 Red. masses --      8.7578                 4.8520                 6.4394
 Frc consts  --      1.6652                 0.9665                 1.5073
 IR Inten    --    229.5570               134.7956                 0.0282

                     28                     29                     30
                      A                      A                      A
 Frequencies --    657.8477               694.7673               701.2903
 Red. masses --      8.7183                 5.3865                 2.0422
 Frc consts  --      2.2230                 1.5319                 0.5918
 IR Inten    --      1.7872                13.0839                38.5447

                     31                     32                     33
                      A                      A                      A
 Frequencies --    704.7398               776.3338               781.4922
 Red. masses --      2.9456                 1.4998                 5.4310
 Frc consts  --      0.8620                 0.5326                 1.9542
 IR Inten    --     11.6178               114.3520                51.6937

                     34                     35                     36
                      A                      A                      A
 Frequencies --    805.7717               863.3047               865.1440
 Red. masses --      2.1536                 1.2554                 3.5455
 Frc consts  --      0.8238                 0.5513                 1.5635
 IR Inten    --      5.5494                 0.3316                45.8650

                     37                     38                     39
                      A                      A                      A
 Frequencies --    901.4072               946.3344               964.2286
 Red. masses --      6.8887                 1.3882                 8.7150
 Frc consts  --      3.2978                 0.7325                 4.7739
 IR Inten    --    157.6731                 3.2505                11.6859

                     40                     41                     42
                      A                      A                      A
 Frequencies --    985.8126               991.4222              1004.0100
 Red. masses --      1.3578                 9.7978                 2.4680
 Frc consts  --      0.7774                 5.6741                 1.4658
 IR Inten    --      0.3787                65.8405                29.5021

                     43                     44                     45
                      A                      A                      A
 Frequencies --   1015.2522              1016.7073              1047.9726
 Red. masses --      1.2750                 6.0405                 2.4912
 Frc consts  --      0.7743                 3.6789                 1.6120
 IR Inten    --      0.0539                 2.4272                 4.9987

                     46                     47                     48
                      A                      A                      A
 Frequencies --   1067.7294              1072.2282              1089.5237
 Red. masses --      2.0681                 1.1584                 4.5355
 Frc consts  --      1.3891                 0.7847                 3.1721
 IR Inten    --     26.1936                11.2434                48.9691

                     49                     50                     51
                      A                      A                      A
 Frequencies --   1112.1219              1146.5779              1154.0544
 Red. masses --      1.5929                 3.5834                 1.8355
 Frc consts  --      1.1607                 2.7756                 1.4403
 IR Inten    --     13.8007               241.6243                50.9071

                     52                     53                     54
                      A                      A                      A
 Frequencies --   1181.0385              1189.8360              1203.4461
 Red. masses --      1.8153                 1.0925                 1.4327
 Frc consts  --      1.4919                 0.9113                 1.2225
 IR Inten    --    172.7121                 0.1542                25.8258

                     55                     56                     57
                      A                      A                      A
 Frequencies --   1213.9883              1250.6701              1289.3747
 Red. masses --      1.4801                 1.6493                 4.8393
 Frc consts  --      1.2852                 1.5200                 4.7401
 IR Inten    --      9.3787                 3.1472                10.1458

                     58                     59                     60
                      A                      A                      A
 Frequencies --   1341.9910              1364.6615              1371.0626
 Red. masses --      2.6160                 5.1886                 1.7995
 Frc consts  --      2.7758                 5.6932                 1.9931
 IR Inten    --     51.2452               106.5133                 2.6211

                     61                     62                     63
                      A                      A                      A
 Frequencies --   1399.9176              1434.8466              1443.0533
 Red. masses --      1.7534                 1.6432                 1.1437
 Frc consts  --      2.0246                 1.9932                 1.4032
 IR Inten    --     64.2575               113.5245                 4.7501

                     64                     65                     66
                      A                      A                      A
 Frequencies --   1459.3230              1485.1309              1493.1302
 Red. masses --      1.1531                 1.1139                 2.3554
 Frc consts  --      1.4469                 1.4475                 3.0940
 IR Inten    --      3.1190                17.1465                43.5010

                     67                     68                     69
                      A                      A                      A
 Frequencies --   1501.7593              1507.5717              1515.6156
 Red. masses --      1.0542                 1.0535                 2.4160
 Frc consts  --      1.4008                 1.4107                 3.2698
 IR Inten    --     30.9987                 1.5162               288.7843

                     70                     71                     72
                      A                      A                      A
 Frequencies --   1517.4460              1521.0381              1526.6554
 Red. masses --      1.2697                 2.5744                 1.0803
 Frc consts  --      1.7226                 3.5092                 1.4834
 IR Inten    --     83.0766               511.7833               112.6691

                     73                     74                     75
                      A                      A                      A
 Frequencies --   1556.8019              1628.5430              1651.0786
 Red. masses --      3.6031                 5.5665                 6.6480
 Frc consts  --      5.1451                 8.6983                10.6777
 IR Inten    --     13.9078               108.2131                99.4413

                     76                     77                     78
                      A                      A                      A
 Frequencies --   1664.5340              3124.5676              3128.0644
 Red. masses --      5.8716                 1.0293                 1.0302
 Frc consts  --      9.5850                 5.9205                 5.9391
 IR Inten    --     59.6571                 4.4301                 4.3793

                     79                     80                     81
                      A                      A                      A
 Frequencies --   3209.5222              3215.8815              3221.6420
 Red. masses --      1.0860                 1.0886                 1.1082
 Frc consts  --      6.5914                 6.6331                 6.7765
 IR Inten    --      1.9718                 4.6477                 0.8223

                     82                     83                     84
                      A                      A                      A
 Frequencies --   3223.0861              3223.9294              3233.0786
 Red. masses --      1.1091                 1.0927                 1.0959
 Frc consts  --      6.7885                 6.6913                 6.7493
 IR Inten    --      2.0820                38.3851                38.9840

                     85                     86                     87
                      A                      A                      A
 Frequencies --   3234.5833              3236.9179              3240.0070
 Red. masses --      1.1101                 1.1099                 1.0949
 Frc consts  --      6.8430                 6.8514                 6.7723
 IR Inten    --      1.2905                 1.1714                10.8308

                     88                     89                     90
                      A                      A                      A
 Frequencies --   3320.1385              3394.2708              3510.5122
 Red. masses --      1.0996                 1.0777                 1.0789
 Frc consts  --      7.1416                 7.3156                 7.8337
 IR Inten    --      4.9929               250.9961               353.2932

 - Thermochemistry -
 -------------------
 Temperature   298.150 Kelvin.  Pressure   1.00000 Atm.
 Atom     1 has atomic number  8 and mass  15.99491

 Molecular mass:   268.07559 amu.
 Principal axes and moments of inertia in atomic units:
                           1         2         3
     Eigenvalues --  1441.78703********************
           X            0.99977   0.01925  -0.00958
           Y           -0.01828   0.99557   0.09228
           Z            0.01131  -0.09208   0.99569
 This molecule is an asymmetric top.
 Rotational symmetry number  1.
 Warning -- assumption of classical behavior for rotation
           may cause significant error
 Rotational temperatures (Kelvin)      0.06007     0.00705     0.00686
 Rotational constants (GHZ):           1.25174     0.14695     0.14301
 Zero-point vibrational energy     667452.3 (Joules/Mol)
                                  159.52493 (Kcal/Mol)
 Warning -- explicit consideration of  26 degrees of freedom as
           vibrations may cause significant error
 Vibrational temperatures:     34.91    50.66   100.57   119.07   127.32
          (Kelvin)            145.32   208.46   248.54   267.41   288.77
                              319.38   339.86   368.53   398.57   416.14
                              508.33   521.36   572.01   592.27   596.37
                              622.82   659.88   708.43   726.57   817.34
                              836.56   906.88   946.50   999.62  1009.00
                             1013.96  1116.97  1124.39  1159.33  1242.10
                             1244.75  1296.92  1361.56  1387.31  1418.36
                             1426.44  1444.55  1460.72  1462.82  1507.80
                             1536.22  1542.70  1567.58  1600.10  1649.67
                             1660.43  1699.25  1711.91  1731.49  1746.66
                             1799.44  1855.12  1930.83  1963.44  1972.65
                             2014.17  2064.42  2076.23  2099.64  2136.77
                             2148.28  2160.70  2169.06  2180.63  2183.27
                             2188.43  2196.52  2239.89  2343.11  2375.53
                             2394.89  4495.56  4500.59  4617.79  4626.94
                             4635.22  4637.30  4638.52  4651.68  4653.84
                             4657.20  4661.65  4776.94  4883.60  5050.84

 Zero-point correction=                           0.254219 (Hartree/Particle)
 Thermal correction to Energy=                    0.271278
 Thermal correction to Enthalpy=                  0.272222
 Thermal correction to Gibbs Free Energy=         0.208209
 Sum of electronic and zero-point Energies=          -1215.189458
 Sum of electronic and thermal Energies=             -1215.172399
 Sum of electronic and thermal Enthalpies=           -1215.171455
 Sum of electronic and thermal Free Energies=        -1215.235467

                     E (Thermal)             CV                S
                      KCal/Mol        Cal/Mol-Kelvin    Cal/Mol-Kelvin
 Total                  170.230             64.260            134.726
 Electronic               0.000              0.000              0.000
 Translational            0.889              2.981             42.657
 Rotational               0.889              2.981             33.768
 Vibrational            168.452             58.299             58.301
 Vibration     1          0.593              1.985              6.251
 Vibration     2          0.594              1.982              5.512
 Vibration     3          0.598              1.968              4.156
 Vibration     4          0.600              1.961              3.824
 Vibration     5          0.601              1.957              3.693
 Vibration     6          0.604              1.948              3.435
 Vibration     7          0.616              1.908              2.738
 Vibration     8          0.626              1.876              2.405
 Vibration     9          0.632              1.859              2.269
 Vibration    10          0.638              1.839              2.127
 Vibration    11          0.648              1.808              1.943
 Vibration    12          0.655              1.785              1.831
 Vibration    13          0.666              1.752              1.688
 Vibration    14          0.678              1.716              1.552
 Vibration    15          0.686              1.694              1.478
 Vibration    16          0.730              1.568              1.151
 Vibration    17          0.736              1.550              1.112
 Vibration    18          0.764              1.475              0.972
 Vibration    19          0.776              1.445              0.921
 Vibration    20          0.778              1.439              0.911
 Vibration    21          0.794              1.399              0.849
 Vibration    22          0.817              1.342              0.770
 Vibration    23          0.848              1.267              0.677
 Vibration    24          0.860              1.239              0.646
 Vibration    25          0.924              1.100              0.508
 Vibration    26          0.938              1.071              0.483

                           ! Non-Optimized Parameters !
 Normal termination of Gaussian 16 at Thu Sep 24 07:54:13 2020.

 ----------------------------------------------------------------------
 #p b3lyp/6-31G(d) scrf=(iefpcm,read,solvent=water) geom=allcheck guess
 =read
 ----------------------------------------------------------------------

 Structure from the checkpoint file:  "SM43_m2.b.3.pdb.xyz.mst.b.w.chk"
 -------------------
 SM43_m2.b.3.pdb.xyz
 -------------------
 Charge =  1 Multiplicity = 1

 SCF Done:  E(RB3LYP) =  -1215.44357407     A.U. after    7 cycles
 Normal termination of Gaussian 16 at Thu Sep 24 07:54:49 2020.

 -----------------------------
 #p B3LYP/6-31G* geom=allcheck
 -----------------------------

 Structure from the checkpoint file:  "SM43_m2.b.3.pdb.xyz.mst.b.w.chk"
 -------------------
 SM43_m2.b.3.pdb.xyz
 -------------------
 Charge =  1 Multiplicity = 1

 SCF Done:  E(RB3LYP) =  -1215.34041641     A.U. after   16 cycles
 Normal termination of Gaussian 16 at Thu Sep 24 07:55:36 2020.
 Gaussian 16:  ES64L-G16RevB.01 20-Dec-2017

 ----------------------------------------------------------------------
 #p mp2/aug-cc-pVDZ scf=(MaxCycle=2000,NoVarAcc,NoIncFock) maxdisk=120G
 B geom=allcheck
 ----------------------------------------------------------------------

 Structure from the checkpoint file:  "SM43_m2.b.3.pdb.xyz.mst.b.w.chk"
 -------------------
 SM43_m2.b.3.pdb.xyz
 -------------------
 Charge =  1 Multiplicity = 1

                         Standard orientation:
 ---------------------------------------------------------------------
 Center     Atomic      Atomic             Coordinates (Angstroms)
 Number     Number       Type             X           Y           Z
 ---------------------------------------------------------------------
      1          8           0       -2.830850    0.556587   -1.699770
      2         16           0       -2.994169   -0.407721   -0.632883
      3          7           0       -1.574079   -1.076855   -0.186448
      4          6           0       -0.324260   -0.438040   -0.159105
      5          7           0       -0.213174    0.868882   -0.263826
      6          8           0        1.161354    1.104658   -0.203024
      7          6           0        1.824278   -0.069411   -0.051465
      8          6           0        3.278850   -0.009749    0.029461
      9          6           0        3.951498    1.208738   -0.161472
     10          6           0        5.340773    1.258808   -0.085010
     11          6           0        6.072098    0.099135    0.181543
     12          6           0        5.407520   -1.115159    0.373130
     13          6           0        4.018696   -1.173333    0.298763
     14          6           0        0.919664   -1.096703   -0.017053
     15          7           0       -3.451183    0.660782    0.829871
     16          6           0       -4.625666    1.521101    0.466623
     17          6           0       -3.678411   -0.163835    2.056193
     18          8           0       -4.000545   -1.450568   -0.628351
     19          1           0       -1.647567   -2.024750    0.188418
     20          1           0        3.382517    2.106368   -0.371611
     21          1           0        5.852469    2.203207   -0.235356
     22          1           0        7.154273    0.140810    0.240146
     23          1           0        5.971598   -2.017351    0.582795
     24          1           0        3.508474   -2.117374    0.454369
     25          1           0        1.098680   -2.154314    0.079361
     26          1           0       -4.369925    2.091916   -0.422479
     27          1           0       -4.809933    2.185436    1.309170
     28          1           0       -5.487510    0.880765    0.289709
     29          1           0       -2.758047   -0.685640    2.308223
     30          1           0       -4.486802   -0.864543    1.860778
     31          1           0       -3.948316    0.517483    2.861045
     32          1           0       -2.634059    1.277129    0.983887
 ---------------------------------------------------------------------

 SCF Done:  E(RHF) =  -1209.87672020     A.U. after   16 cycles
 E2 =    -0.2786302472D+01 EUMP2 =    -0.12126630226722D+04

 The electronic state is 1-A.
 Alpha  occ. eigenvalues --  -92.44523 -20.77956 -20.75901 -20.75317 -15.88467
 Alpha  occ. eigenvalues --  -15.81568 -15.75639 -11.48387 -11.46495 -11.46123
 Alpha  occ. eigenvalues --  -11.45717 -11.37064 -11.36315 -11.35456 -11.34988
 Alpha  occ. eigenvalues --  -11.34514 -11.33955 -11.33784  -9.40873  -7.09403
 Alpha  occ. eigenvalues --   -7.09363  -7.09351  -1.66726  -1.62262  -1.54143
 Alpha  occ. eigenvalues --   -1.48386  -1.45311  -1.29539  -1.26436  -1.21304
 Alpha  occ. eigenvalues --   -1.17412  -1.13165  -1.12253  -1.11971  -1.06458
 Alpha  occ. eigenvalues --   -0.99140  -0.98590  -0.94928  -0.93021  -0.91132
 Alpha  occ. eigenvalues --   -0.89575  -0.88491  -0.85604  -0.83568  -0.81419
 Alpha  occ. eigenvalues --   -0.79971  -0.79465  -0.77749  -0.77542  -0.75903
 Alpha  occ. eigenvalues --   -0.75179  -0.74115  -0.73135  -0.72340  -0.71117
 Alpha  occ. eigenvalues --   -0.70765  -0.69180  -0.68930  -0.67973  -0.67773
 Alpha  occ. eigenvalues --   -0.66540  -0.65505  -0.62108  -0.61301  -0.60490
 Alpha  occ. eigenvalues --   -0.59346  -0.53593  -0.51476  -0.43685  -0.42160
 Alpha virt. eigenvalues --   -0.07869  -0.06598  -0.05435  -0.04974  -0.04517
 Alpha virt. eigenvalues --   -0.03668  -0.03194  -0.02863  -0.02296  -0.01842
 Alpha virt. eigenvalues --   -0.01711  -0.01523  -0.00925  -0.00072   0.00282

 Mulliken charges:
               1
     1  O   -1.022119
     2  S    2.983425
     3  N   -0.827932
     4  C   -0.243189
     5  N   -0.249656
     6  O   -1.054802
     7  C    0.318826
     8  C    1.414307
     9  C    0.421841
    10  C    0.197839
    11  C    0.552887
    12  C    0.040765
    13  C    0.649395
    14  C    1.516435
    15  N   -0.760597
    16  C    0.783456
    17  C    0.820600
    18  O   -1.030876
    19  H   -0.051417
    20  H   -0.660307
    21  H   -0.428496
    22  H   -0.416515
    23  H   -0.469287
    24  H   -0.592566
    25  H   -0.533848
    26  H   -0.087818
    27  H   -0.115654
    28  H   -0.059059
    29  H   -0.187484
    30  H   -0.022132
    31  H   -0.105005
    32  H    0.218982
 Sum of Mulliken charges =   1.00000

 Dipole moment (field-independent basis, Debye):
    X=             -7.4166    Y=             -0.7070    Z=              6.5761  Tot=              9.9373
 Quadrupole moment (field-independent basis, Debye-Ang):
   XX=            -25.6471   YY=            -95.6147   ZZ=           -109.2943
   XY=            -13.3878   XZ=            -21.3123   YZ=              0.5110

 Normal termination of Gaussian 16 at Thu Sep 24 08:43:33 2020.
