 Gaussian 16, Revision B.01,

 ----------------------------------------------------------------------
 #p b3lyp/6-31G(d) opt freq NoSymm scf=(MaxCycle=2000,NoVarAcc,NoIncFoc
 k) scrf=(iefpcm,read,solvent=water)
 ----------------------------------------------------------------------

 -------------------
 SM43_m1.a.9.pdb.xyz
 -------------------
 Symbolic Z-matrix:
 Charge = -1 Multiplicity = 1

 SCF Done:  E(RB3LYP) =  -1214.53950409     A.U. after   13 cycles
 SCF Done:  E(RB3LYP) =  -1214.53940941     A.U. after    9 cycles
 SCF Done:  E(RB3LYP) =  -1214.53943602     A.U. after    8 cycles
 SCF Done:  E(RB3LYP) =  -1214.53950193     A.U. after    9 cycles
 SCF Done:  E(RB3LYP) =  -1214.53950515     A.U. after    8 cycles
 SCF Done:  E(RB3LYP) =  -1214.53943368     A.U. after    9 cycles
 SCF Done:  E(RB3LYP) =  -1214.53943421     A.U. after    8 cycles
 SCF Done:  E(RB3LYP) =  -1214.53950072     A.U. after    9 cycles
 SCF Done:  E(RB3LYP) =  -1214.53950488     A.U. after    8 cycles
 SCF Done:  E(RB3LYP) =  -1214.53950514     A.U. after    7 cycles
 SCF Done:  E(RB3LYP) =  -1214.53950462     A.U. after    8 cycles
 SCF Done:  E(RB3LYP) =  -1214.53943508     A.U. after   10 cycles
 SCF Done:  E(RB3LYP) =  -1214.53950034     A.U. after    9 cycles
 SCF Done:  E(RB3LYP) =  -1214.53950464     A.U. after    8 cycles
 SCF Done:  E(RB3LYP) =  -1214.53943395     A.U. after   10 cycles
 SCF Done:  E(RB3LYP) =  -1214.53943352     A.U. after    6 cycles
 Optimization completed on the basis of negligible forces.
    -- Stationary point found.
 Normal termination of Gaussian 16 at Thu Sep 24 07:43:56 2020.

 --------------------------------------------------------------------
 #P Geom=AllCheck Guess=TCheck SCRF=Check GenChk RB3LYP/6-31G(d) Freq
 --------------------------------------------------------------------

 Structure from the checkpoint file:  "SM43_m1.a.9.pdb.xyz.mst.a.w.chk"
 -------------------
 SM43_m1.a.9.pdb.xyz
 -------------------
 Charge = -1 Multiplicity = 1

 SCF Done:  E(RB3LYP) =  -1214.53943352     A.U. after    1 cycles

  Exact polarizability: 341.515   9.503 211.195  10.331 -24.965 124.470
 Approx polarizability: 347.533  17.465 265.088  12.212 -36.874 145.613

                      1                      2                      3
                      A                      A                      A
 Frequencies --     27.1582                34.2004                47.3033
 Red. masses --      4.6616                 4.6857                 2.7837
 Frc consts  --      0.0020                 0.0032                 0.0037
 IR Inten    --      4.5509                 2.8880                 1.5899

                      4                      5                      6
                      A                      A                      A
 Frequencies --     63.9946                82.5416                92.8534
 Red. masses --      5.5331                 6.4148                 4.9435
 Frc consts  --      0.0134                 0.0258                 0.0251
 IR Inten    --      2.9001                 1.9630                 3.4627

                      7                      8                      9
                      A                      A                      A
 Frequencies --    136.7912               182.9521               208.1304
 Red. masses --      7.8373                 2.0381                 1.3639
 Frc consts  --      0.0864                 0.0402                 0.0348
 IR Inten    --      0.5924                 0.6928                 1.9367

                     10                     11                     12
                      A                      A                      A
 Frequencies --    215.9293               233.1027               250.6726
 Red. masses --      1.3860                 3.7285                 6.7199
 Frc consts  --      0.0381                 0.1194                 0.2488
 IR Inten    --      0.6694                 7.2115                15.6347

                     13                     14                     15
                      A                      A                      A
 Frequencies --    270.3159               318.1480               343.6260
 Red. masses --      3.8192                 7.1208                 3.4915
 Frc consts  --      0.1644                 0.4247                 0.2429
 IR Inten    --      1.1814                11.2046                 8.0771

                     16                     17                     18
                      A                      A                      A
 Frequencies --    359.9337               396.8642               414.1641
 Red. masses --      4.0441                 7.7180                 3.0486
 Frc consts  --      0.3087                 0.7162                 0.3081
 IR Inten    --      3.5184                 6.8449                 0.2132

                     19                     20                     21
                      A                      A                      A
 Frequencies --    420.0446               464.1136               471.1314
 Red. masses --      6.8074                 5.8978                 5.6646
 Frc consts  --      0.7077                 0.7485                 0.7408
 IR Inten    --      4.0721                16.8480                22.2811

                     22                     23                     24
                      A                      A                      A
 Frequencies --    496.8258               509.4096               584.6694
 Red. masses --      4.1698                 5.8591                 8.5406
 Frc consts  --      0.6064                 0.8958                 1.7201
 IR Inten    --      7.4885                33.1328               109.3720

                     25                     26                     27
                      A                      A                      A
 Frequencies --    631.6386               643.9347               657.9086
 Red. masses --      6.4479                 7.6867                 7.2583
 Frc consts  --      1.5157                 1.8779                 1.8510
 IR Inten    --      0.1433               246.7736                 6.5544

                     28                     29                     30
                      A                      A                      A
 Frequencies --    691.2856               706.5578               715.8116
 Red. masses --      6.5486                 1.8071                 3.9254
 Frc consts  --      1.8438                 0.5315                 1.1850
 IR Inten    --     11.3262                46.7306                37.2864

                     31                     32                     33
                      A                      A                      A
 Frequencies --    737.0694               780.7777               805.4781
 Red. masses --     10.2858                 1.5027                 1.8888
 Frc consts  --      3.2923                 0.5397                 0.7220
 IR Inten    --    205.6938                95.8979                12.2071

                     34                     35                     36
                      A                      A                      A
 Frequencies --    863.7949               896.6638               922.3856
 Red. masses --      1.2539                12.2073                13.4195
 Frc consts  --      0.5512                 5.7827                 6.7269
 IR Inten    --      0.0324               197.6932                87.1323

                     37                     38                     39
                      A                      A                      A
 Frequencies --    929.7393               941.0538               958.1918
 Red. masses --      3.2962                 1.3913                 8.4560
 Frc consts  --      1.6788                 0.7259                 4.5743
 IR Inten    --    162.8694                 3.0655                29.4166

                     40                     41                     42
                      A                      A                      A
 Frequencies --    982.7791              1012.6238              1016.2622
 Red. masses --      1.3511                 1.2608                 6.1093
 Frc consts  --      0.7689                 0.7617                 3.7175
 IR Inten    --      0.0058                 0.0924                 0.2110

                     43                     44                     45
                      A                      A                      A
 Frequencies --   1035.4523              1054.8869              1058.8955
 Red. masses --      2.3075                 2.5061                 1.5363
 Frc consts  --      1.4576                 1.6431                 1.0149
 IR Inten    --     22.8372                13.0526                14.9440

                     46                     47                     48
                      A                      A                      A
 Frequencies --   1079.4709              1098.6673              1108.2731
 Red. masses --      4.6493                 5.9900                 1.5986
 Frc consts  --      3.1920                 4.2600                 1.1569
 IR Inten    --    362.3332               353.5805                21.7802

                     49                     50                     51
                      A                      A                      A
 Frequencies --   1123.0108              1174.6552              1187.8496
 Red. masses --      1.2288                 1.4231                 1.0949
 Frc consts  --      0.9131                 1.1570                 0.9102
 IR Inten    --      4.6369                14.2001                 0.4096

                     52                     53                     54
                      A                      A                      A
 Frequencies --   1203.4008              1205.9813              1219.1207
 Red. masses --      1.2342                 4.5736                 7.2327
 Frc consts  --      1.0531                 3.9192                 6.3335
 IR Inten    --     52.9292               154.3121               339.2586

                     55                     56                     57
                      A                      A                      A
 Frequencies --   1230.0479              1263.1780              1294.4436
 Red. masses --      2.3927                 1.9108                 4.8059
 Frc consts  --      2.1329                 1.7964                 4.7445
 IR Inten    --    109.6858                10.2950                 6.2867

                     58                     59                     60
                      A                      A                      A
 Frequencies --   1348.3256              1367.4580              1434.8711
 Red. masses --      3.3483                 1.9893                 6.1885
 Frc consts  --      3.5864                 2.1917                 7.5069
 IR Inten    --     32.0042                 2.1637               285.4904

                     61                     62                     63
                      A                      A                      A
 Frequencies --   1438.5676              1457.7189              1484.9418
 Red. masses --      1.1689                 1.1691                 5.0587
 Frc consts  --      1.4252                 1.4637                 6.5722
 IR Inten    --      0.6730                 7.6656               480.4059

                     64                     65                     66
                      A                      A                      A
 Frequencies --   1497.8835              1499.7746              1511.6417
 Red. masses --      1.9644                 1.2138                 1.0803
 Frc consts  --      2.5968                 1.6086                 1.4544
 IR Inten    --    138.7246                99.9490                41.9274

                     67                     68                     69
                      A                      A                      A
 Frequencies --   1514.5622              1527.8050              1541.0062
 Red. masses --      1.0495                 1.0489                 2.3716
 Frc consts  --      1.4184                 1.4426                 3.3182
 IR Inten    --      8.6791                13.0133               163.8570

                     70                     71                     72
                      A                      A                      A
 Frequencies --   1626.8016              1651.5047              1666.4513
 Red. masses --      5.7121                 6.8351                 6.1855
 Frc consts  --      8.9066                10.9838                10.1207
 IR Inten    --    107.8866               108.7807                32.1673

                     73                     74                     75
                      A                      A                      A
 Frequencies --   3020.3524              3029.5699              3117.5961
 Red. masses --      1.0520                 1.0495                 1.0858
 Frc consts  --      5.6546                 5.6752                 6.2178
 IR Inten    --     98.7120               112.6524                60.4870

                     76                     77                     78
                      A                      A                      A
 Frequencies --   3118.9045              3173.8543              3189.6125
 Red. masses --      1.0891                 1.1012                 1.0994
 Frc consts  --      6.2421                 6.5359                 6.5898
 IR Inten    --     25.9950                20.0459                13.5986

                     79                     80                     81
                      A                      A                      A
 Frequencies --   3204.9143              3212.0444              3219.7043
 Red. masses --      1.0856                 1.0884                 1.0924
 Frc consts  --      6.5700                 6.6159                 6.6721
 IR Inten    --      1.1500                 5.8016                45.1573

                     82                     83                     84
                      A                      A                      A
 Frequencies --   3228.4171              3236.5928              3302.6269
 Red. masses --      1.0958                 1.0948                 1.0984
 Frc consts  --      6.7292                 6.7573                 7.0585
 IR Inten    --     45.0767                13.5995                 1.0013

 - Thermochemistry -
 -------------------
 Temperature   298.150 Kelvin.  Pressure   1.00000 Atm.
 Atom     1 has atomic number  8 and mass  15.99491

 Molecular mass:   266.05994 amu.
 Principal axes and moments of inertia in atomic units:
                           1         2         3
     Eigenvalues --  1427.43295********************
           X            0.99973   0.00431  -0.02284
           Y           -0.00296   0.99826   0.05885
           Z            0.02305  -0.05877   0.99801
 This molecule is an asymmetric top.
 Rotational symmetry number  1.
 Warning -- assumption of classical behavior for rotation
           may cause significant error
 Rotational temperatures (Kelvin)      0.06068     0.00729     0.00708
 Rotational constants (GHZ):           1.26433     0.15182     0.14742
 Zero-point vibrational energy     595020.6 (Joules/Mol)
                                  142.21333 (Kcal/Mol)
 Warning -- explicit consideration of  24 degrees of freedom as
           vibrations may cause significant error
 Vibrational temperatures:     39.07    49.21    68.06    92.07   118.76
          (Kelvin)            133.60   196.81   263.23   299.45   310.67
                              335.38   360.66   388.92   457.74   494.40
                              517.86   571.00   595.89   604.35   667.76
                              677.85   714.82   732.93   841.21   908.79
                              926.48   946.58   994.61  1016.58  1029.89
                             1060.48  1123.37  1158.90  1242.81  1290.10
                             1327.11  1337.69  1353.97  1378.62  1414.00
                             1456.94  1462.17  1489.78  1517.75  1523.51
                             1553.12  1580.74  1594.56  1615.76  1690.07
                             1709.05  1731.43  1735.14  1754.04  1769.76
                             1817.43  1862.42  1939.94  1967.47  2064.46
                             2069.78  2097.33  2136.50  2155.12  2157.84
                             2174.92  2179.12  2198.17  2217.16  2340.60
                             2376.15  2397.65  4345.61  4358.88  4485.53
                             4487.41  4566.47  4589.14  4611.16  4621.42
                             4632.44  4644.97  4656.74  4751.74

 Zero-point correction=                           0.226631 (Hartree/Particle)
 Thermal correction to Energy=                    0.243107
 Thermal correction to Enthalpy=                  0.244051
 Thermal correction to Gibbs Free Energy=         0.180654
 Sum of electronic and zero-point Energies=          -1214.312802
 Sum of electronic and thermal Energies=             -1214.296327
 Sum of electronic and thermal Enthalpies=           -1214.295382
 Sum of electronic and thermal Free Energies=        -1214.358779

                     E (Thermal)             CV                S
                      KCal/Mol        Cal/Mol-Kelvin    Cal/Mol-Kelvin
 Total                  152.552             61.944            133.430
 Electronic               0.000              0.000              0.000
 Translational            0.889              2.981             42.635
 Rotational               0.889              2.981             33.696
 Vibrational            150.774             55.982             57.099
 Vibration     1          0.593              1.984              6.027
 Vibration     2          0.594              1.983              5.570
 Vibration     3          0.595              1.979              4.927
 Vibration     4          0.597              1.971              4.330
 Vibration     5          0.600              1.961              3.830
 Vibration     6          0.602              1.954              3.599
 Vibration     7          0.614              1.917              2.848
 Vibration     8          0.630              1.863              2.298
 Vibration     9          0.641              1.828              2.060
 Vibration    10          0.645              1.817              1.993
 Vibration    11          0.654              1.790              1.855
 Vibration    12          0.663              1.762              1.726
 Vibration    13          0.674              1.728              1.594
 Vibration    14          0.705              1.639              1.320
 Vibration    15          0.722              1.588              1.195
 Vibration    16          0.734              1.555              1.122
 Vibration    17          0.763              1.477              0.974
 Vibration    18          0.778              1.439              0.912
 Vibration    19          0.783              1.427              0.892
 Vibration    20          0.822              1.330              0.754
 Vibration    21          0.828              1.314              0.734
 Vibration    22          0.852              1.257              0.666
 Vibration    23          0.865              1.229              0.635
 Vibration    24          0.942              1.065              0.477

 Optimization completed.
    -- Stationary point found.
 Normal termination of Gaussian 16 at Thu Sep 24 07:52:05 2020.

 ----------------------------------------------------------------------
 #p b3lyp/6-31G(d) scrf=(iefpcm,read,solvent=water) geom=allcheck guess
 =read
 ----------------------------------------------------------------------

 Structure from the checkpoint file:  "SM43_m1.a.9.pdb.xyz.mst.a.w.chk"
 -------------------
 SM43_m1.a.9.pdb.xyz
 -------------------
 Charge = -1 Multiplicity = 1

 SCF Done:  E(RB3LYP) =  -1214.53943478     A.U. after    6 cycles
 Normal termination of Gaussian 16 at Thu Sep 24 07:52:37 2020.

 -----------------------------
 #p B3LYP/6-31G* geom=allcheck
 -----------------------------

 Structure from the checkpoint file:  "SM43_m1.a.9.pdb.xyz.mst.a.w.chk"
 -------------------
 SM43_m1.a.9.pdb.xyz
 -------------------
 Charge = -1 Multiplicity = 1

 SCF Done:  E(RB3LYP) =  -1214.43849863     A.U. after   15 cycles
 Normal termination of Gaussian 16 at Thu Sep 24 07:53:11 2020.
 Gaussian 16:  ES64L-G16RevB.01 20-Dec-2017

 ----------------------------------------------------------------------
 #p mp2/aug-cc-pVDZ scf=(MaxCycle=2000,NoVarAcc,NoIncFock) maxdisk=120G
 B geom=allcheck
 ----------------------------------------------------------------------

 Structure from the checkpoint file:  "SM43_m1.a.9.pdb.xyz.mst.a.w.chk"
 -------------------
 SM43_m1.a.9.pdb.xyz
 -------------------
 Charge = -1 Multiplicity = 1

                         Standard orientation:
 ---------------------------------------------------------------------
 Center     Atomic      Atomic             Coordinates (Angstroms)
 Number     Number       Type             X           Y           Z
 ---------------------------------------------------------------------
      1          8           0       -3.019528    0.357587   -1.742044
      2         16           0       -3.014544   -0.457199   -0.502742
      3          7           0       -1.622053   -1.158609   -0.134729
      4          6           0       -0.449671   -0.442544   -0.170779
      5          7           0       -0.308994    0.866402   -0.383374
      6          8           0        1.091282    1.109337   -0.322602
      7          6           0        1.736577   -0.056436   -0.073373
      8          6           0        3.194860   -0.008724    0.016191
      9          6           0        3.885857    1.196067   -0.195170
     10          6           0        5.276176    1.233020   -0.114420
     11          6           0        5.995498    0.072206    0.177568
     12          6           0        5.314674   -1.129841    0.390106
     13          6           0        3.925263   -1.172890    0.310895
     14          6           0        0.828087   -1.064156    0.035182
     15          7           0       -3.320174    0.682907    0.748272
     16          6           0       -4.435763    1.589052    0.445380
     17          6           0       -3.456311    0.062618    2.070210
     18          8           0       -4.047181   -1.522880   -0.454315
     19          1           0        3.327409    2.096180   -0.423647
     20          1           0        5.798068    2.169379   -0.281051
     21          1           0        7.078112    0.102900    0.239264
     22          1           0        5.867094   -2.035143    0.618264
     23          1           0        3.402689   -2.108528    0.478234
     24          1           0        1.008538   -2.109887    0.224869
     25          1           0       -4.281310    2.033089   -0.536627
     26          1           0       -4.441414    2.379331    1.200507
     27          1           0       -5.411326    1.081594    0.465430
     28          1           0       -2.613091   -0.604244    2.249489
     29          1           0       -4.391723   -0.503654    2.178108
     30          1           0       -3.439842    0.856677    2.820793
 ---------------------------------------------------------------------

 SCF Done:  E(RHF) =  -1208.98580742     A.U. after   18 cycles
 E2 =    -0.2796496746D+01 EUMP2 =    -0.12117823041670D+04

 The electronic state is 1-A.
 Alpha  occ. eigenvalues --  -92.05900 -20.50384 -20.37909 -20.37862 -15.45999
 Alpha  occ. eigenvalues --  -15.45242 -15.39056 -11.20127 -11.17852 -11.17682
 Alpha  occ. eigenvalues --  -11.17326 -11.17212 -11.17075 -11.16989 -11.16528
 Alpha  occ. eigenvalues --  -11.13792 -11.13694 -11.11452  -9.02362  -6.70915
 Alpha  occ. eigenvalues --   -6.70859  -6.70832  -1.33836  -1.28156  -1.14989
 Alpha  occ. eigenvalues --   -1.09311  -1.08595  -1.07278  -0.98544  -0.95893
 Alpha  occ. eigenvalues --   -0.94349  -0.91069  -0.83714  -0.78555  -0.77137
 Alpha  occ. eigenvalues --   -0.75599  -0.69524  -0.67694  -0.63955  -0.60538
 Alpha  occ. eigenvalues --   -0.58233  -0.55384  -0.54792  -0.53534  -0.51770
 Alpha  occ. eigenvalues --   -0.51620  -0.51299  -0.50714  -0.48906  -0.47320
 Alpha  occ. eigenvalues --   -0.46087  -0.44246  -0.43542  -0.43074  -0.42917
 Alpha  occ. eigenvalues --   -0.42533  -0.41306  -0.39552  -0.36008  -0.33731
 Alpha  occ. eigenvalues --   -0.33138  -0.32707  -0.31314  -0.29685  -0.29044
 Alpha  occ. eigenvalues --   -0.26541  -0.25867  -0.24730  -0.20755  -0.18861
 Alpha virt. eigenvalues --    0.08731   0.09806   0.10859   0.12122   0.12656
 Alpha virt. eigenvalues --    0.13570   0.13711   0.14420   0.15534   0.15710
 Alpha virt. eigenvalues --    0.16206   0.16591   0.16837   0.17838   0.17947

 Mulliken charges:
               1
     1  O   -1.236737
     2  S    3.070809
     3  N   -1.214460
     4  C   -0.251384
     5  N   -0.287833
     6  O   -1.086443
     7  C    0.266777
     8  C    1.289718
     9  C    0.507649
    10  C    0.167146
    11  C    0.566053
    12  C   -0.008994
    13  C    0.627570
    14  C    1.559189
    15  N   -1.195200
    16  C    0.769928
    17  C    0.729477
    18  O   -1.231865
    19  H   -0.658378
    20  H   -0.455854
    21  H   -0.454278
    22  H   -0.499078
    23  H   -0.581006
    24  H   -0.605115
    25  H   -0.162914
    26  H   -0.170444
    27  H   -0.048968
    28  H   -0.184127
    29  H   -0.041961
    30  H   -0.179275
 Sum of Mulliken charges =  -1.00000

 Dipole moment (field-independent basis, Debye):
    X=             10.3994    Y=              1.3326    Z=              4.7867  Tot=             11.5254
 Quadrupole moment (field-independent basis, Debye-Ang):
   XX=           -153.9132   YY=           -122.9991   ZZ=           -126.8519
   XY=            -14.7892   XZ=            -13.8109   YZ=             -1.2309

 Normal termination of Gaussian 16 at Thu Sep 24 08:28:20 2020.
