 Gaussian 16, Revision B.01,

 ----------------------------------------------------------------------
 #p b3lyp/6-31G(d) opt freq NoSymm scf=(MaxCycle=2000,NoVarAcc,NoIncFoc
 k) scrf=(iefpcm,read,solvent=water)
 ----------------------------------------------------------------------

 --------------------
 SM43_m3.b.10.pdb.xyz
 --------------------
 Symbolic Z-matrix:
 Charge =  2 Multiplicity = 1

 SCF Done:  E(RB3LYP) =  -1215.87116342     A.U. after   13 cycles
 SCF Done:  E(RB3LYP) =  -1215.87117023     A.U. after    8 cycles
 SCF Done:  E(RB3LYP) =  -1215.87116694     A.U. after    7 cycles
 SCF Done:  E(RB3LYP) =  -1215.87116942     A.U. after    8 cycles
 SCF Done:  E(RB3LYP) =  -1215.87116981     A.U. after    7 cycles
 SCF Done:  E(RB3LYP) =  -1215.87116920     A.U. after    7 cycles
 SCF Done:  E(RB3LYP) =  -1215.87116902     A.U. after    6 cycles
 Optimization completed.
    -- Stationary point found.
 Normal termination of Gaussian 16 at Mon Sep 28 08:18:40 2020.

 --------------------------------------------------------------------
 #P Geom=AllCheck Guess=TCheck SCRF=Check GenChk RB3LYP/6-31G(d) Freq
 --------------------------------------------------------------------

 Structure from the checkpoint file:  "SM43_m3.b.10.pdb.xyz.mst.b.w.chk"
 --------------------
 SM43_m3.b.10.pdb.xyz
 --------------------
 Charge =  2 Multiplicity = 1

 SCF Done:  E(RB3LYP) =  -1215.87116902     A.U. after    1 cycles

  Exact polarizability: 347.044   9.001 188.304   8.937 -41.653 137.415
 Approx polarizability: 354.282  16.698 233.602   9.474 -57.694 164.872

                      1                      2                      3
                      A                      A                      A
 Frequencies --     44.3810                46.7324                70.2797
 Red. masses --      3.8951                 5.9223                 5.0504
 Frc consts  --      0.0045                 0.0076                 0.0147
 IR Inten    --      2.5985                 1.7644                 2.5253

                      4                      5                      6
                      A                      A                      A
 Frequencies --     84.0688                91.5043                99.8587
 Red. masses --      3.1381                 4.6714                 5.0241
 Frc consts  --      0.0131                 0.0230                 0.0295
 IR Inten    --      0.3905                 6.4170                 4.4111

                      7                      8                      9
                      A                      A                      A
 Frequencies --    148.1517               167.0315               212.3781
 Red. masses --      4.5856                 6.0905                 1.1617
 Frc consts  --      0.0593                 0.1001                 0.0309
 IR Inten    --      2.8381                 9.8731                 0.2382

                     10                     11                     12
                      A                      A                      A
 Frequencies --    220.9634               237.1715               251.0602
 Red. masses --      4.1479                 3.5639                 5.3990
 Frc consts  --      0.1193                 0.1181                 0.2005
 IR Inten    --      1.3095                 2.3545                 3.5738

                     13                     14                     15
                      A                      A                      A
 Frequencies --    281.3958               289.4437               307.1301
 Red. masses --      2.3994                 3.4002                 1.7877
 Frc consts  --      0.1119                 0.1678                 0.0994
 IR Inten    --     19.7814                 4.9277                11.8998

                     16                     17                     18
                      A                      A                      A
 Frequencies --    319.9886               378.4452               409.7318
 Red. masses --      4.4398                 5.8352                 2.9259
 Frc consts  --      0.2678                 0.4924                 0.2894
 IR Inten    --     16.2358                14.1796                 0.1516

                     19                     20                     21
                      A                      A                      A
 Frequencies --    421.9906               428.4103               434.1396
 Red. masses --      3.5585                 2.2560                 4.6179
 Frc consts  --      0.3734                 0.2440                 0.5128
 IR Inten    --     15.7459                44.6317                40.5020

                     22                     23                     24
                      A                      A                      A
 Frequencies --    451.9688               487.0749               496.0084
 Red. masses --      3.8210                 4.2042                 2.0945
 Frc consts  --      0.4599                 0.5877                 0.3036
 IR Inten    --    126.3273                15.4337                81.0155

                     25                     26                     27
                      A                      A                      A
 Frequencies --    504.6839               557.1095               609.9588
 Red. masses --      1.3166                 7.9159                 5.7461
 Frc consts  --      0.1976                 1.4475                 1.2596
 IR Inten    --     80.4293               129.0871               353.1092

                     28                     29                     30
                      A                      A                      A
 Frequencies --    628.6376               649.8283               697.6940
 Red. masses --      6.4496                 4.9928                 4.7697
 Frc consts  --      1.5017                 1.2422                 1.3680
 IR Inten    --      1.2514                10.6960                34.3167

                     31                     32                     33
                      A                      A                      A
 Frequencies --    698.9463               703.7535               777.3935
 Red. masses --      2.1576                 2.5832                 5.4407
 Frc consts  --      0.6210                 0.7538                 1.9373
 IR Inten    --     38.1658                11.6187                17.9105

                     34                     35                     36
                      A                      A                      A
 Frequencies --    785.0114               819.4870               857.4887
 Red. masses --      1.5475                 1.9348                 4.1110
 Frc consts  --      0.5619                 0.7655                 1.7810
 IR Inten    --    116.5550                26.4087               124.6476

                     37                     38                     39
                      A                      A                      A
 Frequencies --    861.6524               868.7358               950.9363
 Red. masses --      1.2584                 4.9932                 7.1554
 Frc consts  --      0.5505                 2.2203                 3.8123
 IR Inten    --      0.1278               288.1565                38.6546

                     40                     41                     42
                      A                      A                      A
 Frequencies --    956.9836               991.2405              1002.4663
 Red. masses --      1.3726                 1.3586                 2.5984
 Frc consts  --      0.7406                 0.7865                 1.5385
 IR Inten    --      2.3384                 0.0286                21.2004

                     43                     44                     45
                      A                      A                      A
 Frequencies --   1017.1411              1023.7218              1042.0210
 Red. masses --      5.8920                 1.3002                 3.8325
 Frc consts  --      3.5915                 0.8028                 2.4518
 IR Inten    --      7.2254                 0.0176                35.3302

                     46                     47                     48
                      A                      A                      A
 Frequencies --   1059.9494              1072.6287              1082.2829
 Red. masses --      3.5082                 1.8496                 1.1428
 Frc consts  --      2.3222                 1.2538                 0.7887
 IR Inten    --     46.8838                32.6586                13.8787

                     49                     50                     51
                      A                      A                      A
 Frequencies --   1118.3908              1148.9873              1154.4143
 Red. masses --      1.6019                 9.2426                 1.7845
 Frc consts  --      1.1806                 7.1891                 1.4012
 IR Inten    --     18.5443               373.4122                19.3032

                     52                     53                     54
                      A                      A                      A
 Frequencies --   1171.9103              1173.6827              1195.1445
 Red. masses --      1.4141                 4.0056                 1.1019
 Frc consts  --      1.1443                 3.2511                 0.9273
 IR Inten    --     23.5066                54.0923                 3.0472

                     55                     56                     57
                      A                      A                      A
 Frequencies --   1209.9176              1224.8852              1255.4671
 Red. masses --      1.2851                 1.5884                 1.6013
 Frc consts  --      1.1084                 1.4041                 1.4871
 IR Inten    --     94.9263                39.9060                 3.4796

                     58                     59                     60
                      A                      A                      A
 Frequencies --   1288.3573              1351.5890              1376.1824
 Red. masses --      4.0906                 2.4236                 1.7738
 Frc consts  --      4.0005                 2.6086                 1.9793
 IR Inten    --     20.0643                34.8001                22.3243

                     61                     62                     63
                      A                      A                      A
 Frequencies --   1379.0069              1381.8329              1402.5388
 Red. masses --      2.0577                 2.5284                 1.3941
 Frc consts  --      2.3055                 2.8446                 1.6158
 IR Inten    --     44.2440                72.7669                75.8825

                     64                     65                     66
                      A                      A                      A
 Frequencies --   1437.2286              1453.6858              1467.6463
 Red. masses --      1.7925                 1.4072                 1.2034
 Frc consts  --      2.1816                 1.7521                 1.5272
 IR Inten    --     65.6011                52.4396                43.1212

                     67                     68                     69
                      A                      A                      A
 Frequencies --   1470.8030              1497.1574              1504.8485
 Red. masses --      1.1614                 2.3230                 1.0447
 Frc consts  --      1.4803                 3.0678                 1.3939
 IR Inten    --      7.0082                47.9038                12.0943

                     70                     71                     72
                      A                      A                      A
 Frequencies --   1509.5669              1514.1170              1524.4333
 Red. masses --      1.0428                 1.0738                 2.1704
 Frc consts  --      1.4000                 1.4504                 2.9717
 IR Inten    --     10.7967                79.6458               984.0822

                     73                     74                     75
                      A                      A                      A
 Frequencies --   1531.4302              1545.1433              1599.1347
 Red. masses --      1.0697                 2.3421                 5.0132
 Frc consts  --      1.4781                 3.2945                 7.5533
 IR Inten    --     31.8485               488.6071                 3.3622

                     76                     77                     78
                      A                      A                      A
 Frequencies --   1637.3409              1649.7926              1661.0950
 Red. masses --      5.2005                 6.0043                 5.4209
 Frc consts  --      8.2144                 9.6288                 8.8127
 IR Inten    --    266.1494               598.5452                51.8115

                     79                     80                     81
                      A                      A                      A
 Frequencies --   3131.0804              3132.1814              3218.4787
 Red. masses --      1.0293                 1.0301                 1.0865
 Frc consts  --      5.9452                 5.9540                 6.6313
 IR Inten    --      2.3504                 2.3820                 0.0596

                     82                     83                     84
                      A                      A                      A
 Frequencies --   3225.8891              3225.9614              3228.9720
 Red. masses --      1.0889                 1.1084                 1.1084
 Frc consts  --      6.6761                 6.7961                 6.8089
 IR Inten    --      4.6781                 4.7523                 1.0526

                     85                     86                     87
                      A                      A                      A
 Frequencies --   3232.7751              3239.7292              3241.5915
 Red. masses --      1.0924                 1.0959                 1.1108
 Frc consts  --      6.7262                 6.7770                 6.8773
 IR Inten    --     24.8754                29.0941                 5.8705

                     88                     89                     90
                      A                      A                      A
 Frequencies --   3246.4317              3246.8109              3305.7489
 Red. masses --      1.1098                 1.0959                 1.0778
 Frc consts  --      6.8915                 6.8069                 6.9392
 IR Inten    --      1.5667                12.7147               358.8605

                     91                     92                     93
                      A                      A                      A
 Frequencies --   3342.8680              3457.2172              3541.6256
 Red. masses --      1.0997                 1.0790                 1.0871
 Frc consts  --      7.2402                 7.5983                 8.0340
 IR Inten    --     18.1271               420.1462               726.2349

 - Thermochemistry -
 -------------------
 Temperature   298.150 Kelvin.  Pressure   1.00000 Atm.
 Atom     1 has atomic number  8 and mass  15.99491

 Molecular mass:   269.08341 amu.
 Principal axes and moments of inertia in atomic units:
                           1         2         3
     Eigenvalues --  1541.99575********************
           X            0.99985   0.00641  -0.01625
           Y            0.00098   0.90811   0.41872
           Z            0.01745  -0.41867   0.90797
 This molecule is an asymmetric top.
 Rotational symmetry number  1.
 Warning -- assumption of classical behavior for rotation
           may cause significant error
 Rotational temperatures (Kelvin)      0.05617     0.00716     0.00700
 Rotational constants (GHZ):           1.17039     0.14926     0.14583
 Zero-point vibrational energy     702519.9 (Joules/Mol)
                                  167.90628 (Kcal/Mol)
 Warning -- explicit consideration of  27 degrees of freedom as
           vibrations may cause significant error
 Vibrational temperatures:     63.85    67.24   101.12   120.96   131.65
          (Kelvin)            143.67   213.16   240.32   305.56   317.92
                              341.24   361.22   404.87   416.44   441.89
                              460.39   544.50   589.51   607.15   616.39
                              624.63   650.28   700.79   713.65   726.13
                              801.56   877.59   904.47   934.96  1003.83
                             1005.63  1012.54  1118.50  1129.46  1179.06
                             1233.74  1239.73  1249.92  1368.19  1376.89
                             1426.17  1442.33  1463.44  1472.91  1499.24
                             1525.03  1543.27  1557.16  1609.11  1653.14
                             1660.94  1686.12  1688.67  1719.55  1740.80
                             1762.34  1806.34  1853.66  1944.64  1980.02
                             1984.08  1988.15  2017.94  2067.85  2091.53
                             2111.62  2116.16  2154.08  2165.14  2171.93
                             2178.48  2193.32  2203.39  2223.12  2300.80
                             2355.77  2373.68  2389.95  4504.93  4506.51
                             4630.67  4641.33  4641.44  4645.77  4651.24
                             4661.25  4663.93  4670.89  4671.44  4756.24
                             4809.64  4974.16  5095.61

 Zero-point correction=                           0.267576 (Hartree/Particle)
 Thermal correction to Energy=                    0.284582
 Thermal correction to Enthalpy=                  0.285526
 Thermal correction to Gibbs Free Energy=         0.222533
 Sum of electronic and zero-point Energies=          -1215.603593
 Sum of electronic and thermal Energies=             -1215.586587
 Sum of electronic and thermal Enthalpies=           -1215.585643
 Sum of electronic and thermal Free Energies=        -1215.648636

                     E (Thermal)             CV                S
                      KCal/Mol        Cal/Mol-Kelvin    Cal/Mol-Kelvin
 Total                  178.578             65.192            132.581
 Electronic               0.000              0.000              0.000
 Translational            0.889              2.981             42.669
 Rotational               0.889              2.981             33.800
 Vibrational            176.801             59.231             56.112
 Vibration     1          0.595              1.980              5.053
 Vibration     2          0.595              1.979              4.951
 Vibration     3          0.598              1.968              4.146
 Vibration     4          0.601              1.960              3.794
 Vibration     5          0.602              1.955              3.628
 Vibration     6          0.604              1.949              3.457
 Vibration     7          0.618              1.905              2.696
 Vibration     8          0.624              1.883              2.469
 Vibration     9          0.643              1.822              2.023
 Vibration    10          0.648              1.809              1.951
 Vibration    11          0.656              1.784              1.824
 Vibration    12          0.663              1.761              1.723
 Vibration    13          0.681              1.708              1.525
 Vibration    14          0.686              1.693              1.477
 Vibration    15          0.697              1.660              1.378
 Vibration    16          0.706              1.635              1.310
 Vibration    17          0.749              1.516              1.045
 Vibration    18          0.774              1.449              0.928
 Vibration    19          0.784              1.422              0.885
 Vibration    20          0.790              1.408              0.864
 Vibration    21          0.795              1.396              0.845
 Vibration    22          0.811              1.357              0.790
 Vibration    23          0.843              1.279              0.691
 Vibration    24          0.852              1.259              0.668
 Vibration    25          0.860              1.240              0.647
 Vibration    26          0.913              1.124              0.530
 Vibration    27          0.969              1.011              0.433

 Optimization completed.
    -- Stationary point found.
 Normal termination of Gaussian 16 at Mon Sep 28 08:27:52 2020.

 ----------------------------------------------------------------------
 #p b3lyp/6-31G(d) scrf=(iefpcm,read,solvent=water) geom=allcheck guess
 =read
 ----------------------------------------------------------------------

 Structure from the checkpoint file:  "SM43_m3.b.10.pdb.xyz.mst.b.w.chk"
 --------------------
 SM43_m3.b.10.pdb.xyz
 --------------------
 Charge =  2 Multiplicity = 1

 SCF Done:  E(RB3LYP) =  -1215.87048397     A.U. after    8 cycles
 Normal termination of Gaussian 16 at Mon Sep 28 08:28:34 2020.

 -----------------------------
 #p B3LYP/6-31G* geom=allcheck
 -----------------------------

 Structure from the checkpoint file:  "SM43_m3.b.10.pdb.xyz.mst.b.w.chk"
 --------------------
 SM43_m3.b.10.pdb.xyz
 --------------------
 Charge =  2 Multiplicity = 1

 SCF Done:  E(RB3LYP) =  -1215.57270676     A.U. after   16 cycles
 Normal termination of Gaussian 16 at Mon Sep 28 08:29:17 2020.
 Gaussian 16:  ES64L-G16RevB.01 20-Dec-2017

 ----------------------------------------------------------------------
 #p mp2/aug-cc-pVDZ scf=(MaxCycle=2000,NoVarAcc,NoIncFock) maxdisk=120G
 B geom=allcheck
 ----------------------------------------------------------------------

 Structure from the checkpoint file:  "SM43_m3.b.10.pdb.xyz.mst.b.w.chk"
 --------------------
 SM43_m3.b.10.pdb.xyz
 --------------------
 Charge =  2 Multiplicity = 1

                         Standard orientation:
 ---------------------------------------------------------------------
 Center     Atomic      Atomic             Coordinates (Angstroms)
 Number     Number       Type             X           Y           Z
 ---------------------------------------------------------------------
      1          8           0       -2.751629    1.159395   -1.318727
      2         16           0       -3.054133   -0.140543   -0.759656
      3          7           0       -1.647638   -0.840546   -0.212860
      4          6           0       -0.388066   -0.278860   -0.204236
      5          7           0       -0.118504    1.017816   -0.309272
      6          8           0        1.229966    1.219244   -0.236252
      7          6           0        1.800581   -0.003059   -0.080623
      8          6           0        3.244233   -0.049677    0.023778
      9          6           0        3.882753   -1.292213    0.179067
     10          6           0        5.267605   -1.347888    0.284548
     11          6           0        6.021874   -0.172111    0.236534
     12          6           0        5.389113    1.064364    0.082039
     13          6           0        4.004783    1.131083   -0.024622
     14          6           0        0.823313   -0.971821   -0.055256
     15          7           0       -3.960652    0.223268    0.817864
     16          6           0       -4.143506   -1.008552    1.658633
     17          6           0       -3.384826    1.387500    1.566610
     18          8           0       -3.864504   -1.158146   -1.386460
     19          1           0       -1.686896   -1.862099   -0.136294
     20          1           0        3.297878   -2.203806    0.216819
     21          1           0        5.758991   -2.306545    0.404303
     22          1           0        7.101987   -0.219642    0.319785
     23          1           0        5.974481    1.975897    0.045319
     24          1           0        3.511847    2.088133   -0.143423
     25          1           0        0.942829   -2.036261    0.049787
     26          1           0       -4.582091   -1.788142    1.040645
     27          1           0       -4.823605   -0.738306    2.464384
     28          1           0       -3.179947   -1.311701    2.061071
     29          1           0       -3.281934    2.223817    0.881115
     30          1           0       -2.426909    1.107386    1.998627
     31          1           0       -4.095823    1.630474    2.354294
     32          1           0       -4.896043    0.503781    0.465782
     33          1           0       -0.678891    1.865375   -0.405181
 ---------------------------------------------------------------------

 SCF Done:  E(RHF) =  -1210.11364568     A.U. after   17 cycles
 E2 =    -0.2766353725D+01 EUMP2 =    -0.12128799994089D+04

 The electronic state is 1-A.
 Alpha  occ. eigenvalues --  -92.59106 -20.96908 -20.90481 -20.89824 -16.02252
 Alpha  occ. eigenvalues --  -15.98496 -15.97395 -11.69368 -11.63752 -11.58684
 Alpha  occ. eigenvalues --  -11.58422 -11.53241 -11.48717 -11.47755 -11.47389
 Alpha  occ. eigenvalues --  -11.46268 -11.44884 -11.44782  -9.55444  -7.23974
 Alpha  occ. eigenvalues --   -7.23941  -7.23901  -1.83211  -1.81195  -1.68897
 Alpha  occ. eigenvalues --   -1.62175  -1.61478  -1.50022  -1.41420  -1.37143
 Alpha  occ. eigenvalues --   -1.30027  -1.27247  -1.25965  -1.23908  -1.21924
 Alpha  occ. eigenvalues --   -1.17242  -1.14014  -1.10489  -1.07684  -1.05162
 Alpha  occ. eigenvalues --   -1.04908  -1.03283  -1.01261  -0.99778  -0.99008
 Alpha  occ. eigenvalues --   -0.97011  -0.95012  -0.94179  -0.91622  -0.90579
 Alpha  occ. eigenvalues --   -0.88766  -0.88257  -0.88019  -0.87219  -0.86501
 Alpha  occ. eigenvalues --   -0.85707  -0.84239  -0.83434  -0.82735  -0.81275
 Alpha  occ. eigenvalues --   -0.80561  -0.80499  -0.79328  -0.75477  -0.72428
 Alpha  occ. eigenvalues --   -0.72244  -0.71004  -0.67295  -0.55290  -0.55061
 Alpha virt. eigenvalues --   -0.20764  -0.18466  -0.16720  -0.16446  -0.15457
 Alpha virt. eigenvalues --   -0.14792  -0.13598  -0.12792  -0.12602  -0.12199
 Alpha virt. eigenvalues --   -0.11555  -0.11431  -0.10722  -0.10071  -0.09605

 Mulliken charges:
               1
     1  O   -0.999286
     2  S    2.963081
     3  N   -0.797681
     4  C   -0.081916
     5  N    0.004466
     6  O   -1.067477
     7  C   -0.162709
     8  C    1.619182
     9  C    0.655915
    10  C    0.100446
    11  C    0.543725
    12  C    0.258569
    13  C    0.365508
    14  C    1.924378
    15  N   -0.676836
    16  C    0.826190
    17  C    0.881671
    18  O   -0.943193
    19  H   -0.026248
    20  H   -0.572560
    21  H   -0.451551
    22  H   -0.392064
    23  H   -0.414039
    24  H   -0.657623
    25  H   -0.571541
    26  H   -0.099176
    27  H   -0.087014
    28  H   -0.089412
    29  H   -0.130310
    30  H   -0.072875
    31  H   -0.120023
    32  H    0.208007
    33  H    0.062395
 Sum of Mulliken charges =   2.00000

 Dipole moment (field-independent basis, Debye):
    X=             -8.6450    Y=             -0.5649    Z=              6.4437  Tot=             10.7971
 Quadrupole moment (field-independent basis, Debye-Ang):
   XX=             34.0902   YY=            -83.6888   ZZ=           -104.1620
   XY=             -5.1662   XZ=            -25.1540   YZ=             -0.3468

 Normal termination of Gaussian 16 at Mon Sep 28 09:00:34 2020.
