 Gaussian 16, Revision B.01,

 ----------------------------------------------------------------------
 #p b3lyp/6-31G(d) opt freq NoSymm scf=(MaxCycle=2000,NoVarAcc,NoIncFoc
 k) scrf=(iefpcm,read,solvent=water)
 ----------------------------------------------------------------------

 -------------------
 SM43_m2.b.7.pdb.xyz
 -------------------
 Symbolic Z-matrix:
 Charge =  1 Multiplicity = 1

 SCF Done:  E(RB3LYP) =  -1215.44256324     A.U. after   13 cycles
 SCF Done:  E(RB3LYP) =  -1215.44240448     A.U. after   10 cycles
 SCF Done:  E(RB3LYP) =  -1215.44231015     A.U. after   10 cycles
 SCF Done:  E(RB3LYP) =  -1215.44255537     A.U. after   10 cycles
 SCF Done:  E(RB3LYP) =  -1215.44256385     A.U. after    9 cycles
 SCF Done:  E(RB3LYP) =  -1215.44237261     A.U. after   10 cycles
 SCF Done:  E(RB3LYP) =  -1215.44233769     A.U. after    9 cycles
 SCF Done:  E(RB3LYP) =  -1215.44255687     A.U. after   10 cycles
 SCF Done:  E(RB3LYP) =  -1215.44256374     A.U. after    9 cycles
 SCF Done:  E(RB3LYP) =  -1215.44234883     A.U. after   11 cycles
 SCF Done:  E(RB3LYP) =  -1215.44235993     A.U. after   11 cycles
 SCF Done:  E(RB3LYP) =  -1215.44235770     A.U. after    7 cycles
 SCF Done:  E(RB3LYP) =  -1215.44255525     A.U. after   10 cycles
 SCF Done:  E(RB3LYP) =  -1215.44235873     A.U. after   10 cycles
 SCF Done:  E(RB3LYP) =  -1215.44255530     A.U. after   10 cycles
 SCF Done:  E(RB3LYP) =  -1215.44235844     A.U. after   10 cycles
 Optimization completed on the basis of negligible forces.
    -- Stationary point found.
 Normal termination of Gaussian 16 at Thu Sep 24 07:21:01 2020.

 --------------------------------------------------------------------
 #P Geom=AllCheck Guess=TCheck SCRF=Check GenChk RB3LYP/6-31G(d) Freq
 --------------------------------------------------------------------

 Structure from the checkpoint file:  "SM43_m2.b.7.pdb.xyz.mst.b.w.chk"
 -------------------
 SM43_m2.b.7.pdb.xyz
 -------------------
 Charge =  1 Multiplicity = 1

 SCF Done:  E(RB3LYP) =  -1215.44235844     A.U. after    1 cycles

  Exact polarizability: 318.774 -16.785 214.842  25.594   7.669 125.282
 Approx polarizability: 336.669 -18.356 269.225  35.419  12.641 145.521

                      1                      2                      3
                      A                      A                      A
 Frequencies --     29.5503                40.7420                54.6580
 Red. masses --      3.8408                 5.1968                 5.3703
 Frc consts  --      0.0020                 0.0051                 0.0095
 IR Inten    --      1.6558                10.7411                14.3930

                      4                      5                      6
                      A                      A                      A
 Frequencies --     62.8788                89.8284               101.7062
 Red. masses --      7.2134                 3.9361                 3.1218
 Frc consts  --      0.0168                 0.0187                 0.0190
 IR Inten    --      4.6167                 0.2408                 3.1336

                      7                      8                      9
                      A                      A                      A
 Frequencies --    147.2364               174.4263               200.3671
 Red. masses --      6.4381                 1.5768                 2.5203
 Frc consts  --      0.0822                 0.0283                 0.0596
 IR Inten    --      8.2812                 2.4664                 2.9991

                     10                     11                     12
                      A                      A                      A
 Frequencies --    221.1505               244.0965               255.2748
 Red. masses --      1.8827                 3.1276                 3.1766
 Frc consts  --      0.0543                 0.1098                 0.1220
 IR Inten    --      2.7982                 6.6330                 0.9124

                     13                     14                     15
                      A                      A                      A
 Frequencies --    265.5300               308.7133               310.7719
 Red. masses --      2.7859                 3.4223                 6.2427
 Frc consts  --      0.1157                 0.1922                 0.3552
 IR Inten    --      1.5201                 1.2346                 2.4029

                     16                     17                     18
                      A                      A                      A
 Frequencies --    349.7642               384.4636               390.6341
 Red. masses --      4.7364                 7.1991                 5.6631
 Frc consts  --      0.3414                 0.6270                 0.5092
 IR Inten    --      5.7285                11.7518                15.1111

                     19                     20                     21
                      A                      A                      A
 Frequencies --    410.3252               431.2169               466.9134
 Red. masses --      2.9569                 3.1674                 4.8361
 Frc consts  --      0.2933                 0.3470                 0.6212
 IR Inten    --      0.0681                23.4423                13.3688

                     22                     23                     24
                      A                      A                      A
 Frequencies --    491.8191               501.4334               521.6820
 Red. masses --      2.8788                 4.5166                 1.6945
 Frc consts  --      0.4103                 0.6691                 0.2717
 IR Inten    --    126.3698                 3.5012                58.3786

                     25                     26                     27
                      A                      A                      A
 Frequencies --    566.6293               590.6353               630.0350
 Red. masses --      5.3136                 7.4918                 6.4383
 Frc consts  --      1.0052                 1.5398                 1.5057
 IR Inten    --     93.5658               401.9736                 0.1974

                     28                     29                     30
                      A                      A                      A
 Frequencies --    662.7832               687.8991               703.9768
 Red. masses --      8.3007                 6.1616                 1.7566
 Frc consts  --      2.1484                 1.7179                 0.5129
 IR Inten    --      2.9186                22.0729                37.2098

                     31                     32                     33
                      A                      A                      A
 Frequencies --    706.3012               774.1495               783.5090
 Red. masses --      3.9684                 4.0093                 1.5942
 Frc consts  --      1.1664                 1.4157                 0.5766
 IR Inten    --     12.6280                11.9307                78.5549

                     34                     35                     36
                      A                      A                      A
 Frequencies --    815.6222               862.8617               870.5284
 Red. masses --      1.8245                 1.2538                 3.5435
 Frc consts  --      0.7151                 0.5500                 1.5821
 IR Inten    --     15.5531                 0.0413                35.1198

                     37                     38                     39
                      A                      A                      A
 Frequencies --    921.4879               946.2704               962.4863
 Red. masses --      6.1270                 1.3883                 9.3703
 Frc consts  --      3.0653                 0.7324                 5.1144
 IR Inten    --    102.6504                 2.8870                 5.9330

                     40                     41                     42
                      A                      A                      A
 Frequencies --    980.0140               984.8488              1008.3216
 Red. masses --     11.2975                 1.3540                 2.5887
 Frc consts  --      6.3929                 0.7738                 1.5507
 IR Inten    --     46.7176                 0.1082                39.2271

                     43                     44                     45
                      A                      A                      A
 Frequencies --   1015.1318              1016.6979              1045.7188
 Red. masses --      1.2734                 6.0558                 2.4996
 Frc consts  --      0.7732                 3.6881                 1.6105
 IR Inten    --      0.0455                 1.5916                 7.6292

                     46                     47                     48
                      A                      A                      A
 Frequencies --   1058.1046              1068.4370              1080.5550
 Red. masses --      2.6452                 1.1477                 2.7627
 Frc consts  --      1.7449                 0.7719                 1.9006
 IR Inten    --     48.4705                14.4452                 7.1577

                     49                     50                     51
                      A                      A                      A
 Frequencies --   1109.6035              1145.0559              1155.6963
 Red. masses --      1.5686                 2.7214                 1.7004
 Frc consts  --      1.1379                 2.1023                 1.3381
 IR Inten    --     14.8593               182.6429                31.0694

                     52                     53                     54
                      A                      A                      A
 Frequencies --   1176.5903              1189.5040              1202.0763
 Red. masses --      2.0935                 1.0972                 1.1880
 Frc consts  --      1.7076                 0.9147                 1.0115
 IR Inten    --    228.7814                 0.0158                 6.9201

                     55                     56                     57
                      A                      A                      A
 Frequencies --   1217.8595              1252.4017              1289.6915
 Red. masses --      1.9702                 1.6284                 4.5461
 Frc consts  --      1.7217                 1.5049                 4.4551
 IR Inten    --      5.0035                 2.0039                 9.4465

                     58                     59                     60
                      A                      A                      A
 Frequencies --   1352.7948              1359.4333              1368.1996
 Red. masses --      2.9940                 3.1012                 2.1004
 Frc consts  --      3.2283                 3.3767                 2.3166
 IR Inten    --     21.0439               107.5889                 3.8905

                     61                     62                     63
                      A                      A                      A
 Frequencies --   1384.7569              1427.8847              1446.4937
 Red. masses --      1.3130                 1.9968                 1.2215
 Frc consts  --      1.4834                 2.3986                 1.5059
 IR Inten    --     75.0744               242.4447                92.6189

                     64                     65                     66
                      A                      A                      A
 Frequencies --   1453.9342              1473.0383              1481.5826
 Red. masses --      1.2028                 1.1763                 3.7238
 Frc consts  --      1.4981                 1.5038                 4.8160
 IR Inten    --     40.0563                 3.0757               266.0516

                     67                     68                     69
                      A                      A                      A
 Frequencies --   1498.5973              1502.4484              1508.0815
 Red. masses --      1.0599                 3.0112                 1.0554
 Frc consts  --      1.4025                 4.0049                 1.4142
 IR Inten    --     21.9925               265.1322                 1.6678

                     70                     71                     72
                      A                      A                      A
 Frequencies --   1517.0083              1519.8474              1529.1674
 Red. masses --      1.0447                 2.5729                 1.0445
 Frc consts  --      1.4165                 3.5016                 1.4391
 IR Inten    --     20.5187                69.8293                64.6668

                     73                     74                     75
                      A                      A                      A
 Frequencies --   1554.8358              1626.4306              1649.9190
 Red. masses --      3.2385                 5.5583                 6.5222
 Frc consts  --      4.6128                 8.6630                10.4609
 IR Inten    --     39.0174               145.2721                93.0270

                     76                     77                     78
                      A                      A                      A
 Frequencies --   1663.7062              3128.3801              3131.1562
 Red. masses --      5.9058                 1.0298                 1.0304
 Frc consts  --      9.6312                 5.9380                 5.9522
 IR Inten    --     55.0135                 4.8701                 4.1231

                     79                     80                     81
                      A                      A                      A
 Frequencies --   3209.3618              3215.7040              3223.2293
 Red. masses --      1.0861                 1.0885                 1.1093
 Frc consts  --      6.5909                 6.6320                 6.7903
 IR Inten    --      2.1488                 5.8548                 2.5662

                     82                     83                     84
                      A                      A                      A
 Frequencies --   3224.2205              3224.3609              3231.5224
 Red. masses --      1.0925                 1.1078                 1.0951
 Frc consts  --      6.6914                 6.7859                 6.7380
 IR Inten    --     34.4805                 0.7055                36.7281

                     85                     86                     87
                      A                      A                      A
 Frequencies --   3238.0693              3241.3634              3244.1613
 Red. masses --      1.0961                 1.1101                 1.1086
 Frc consts  --      6.7713                 6.8715                 6.8744
 IR Inten    --     15.0136                 1.7872                 0.6324

                     88                     89                     90
                      A                      A                      A
 Frequencies --   3343.6095              3379.1936              3498.0653
 Red. masses --      1.0990                 1.0782                 1.0775
 Frc consts  --      7.2393                 7.2537                 7.7680
 IR Inten    --     10.1950               254.0678               326.1433

 - Thermochemistry -
 -------------------
 Temperature   298.150 Kelvin.  Pressure   1.00000 Atm.
 Atom     1 has atomic number  8 and mass  15.99491

 Molecular mass:   268.07559 amu.
 Principal axes and moments of inertia in atomic units:
                           1         2         3
     Eigenvalues --  1797.30217********************
           X            0.99973   0.01284  -0.01942
           Y           -0.00859   0.97878   0.20475
           Z            0.02163  -0.20453   0.97862
 This molecule is an asymmetric top.
 Rotational symmetry number  1.
 Warning -- assumption of classical behavior for rotation
           may cause significant error
 Rotational temperatures (Kelvin)      0.04819     0.00788     0.00759
 Rotational constants (GHZ):           1.00414     0.16412     0.15813
 Zero-point vibrational energy     668636.1 (Joules/Mol)
                                  159.80786 (Kcal/Mol)
 Warning -- explicit consideration of  26 degrees of freedom as
           vibrations may cause significant error
 Vibrational temperatures:     42.52    58.62    78.64    90.47   129.24
          (Kelvin)            146.33   211.84   250.96   288.28   318.19
                              351.20   367.28   382.04   444.17   447.13
                              503.23   553.16   562.04   590.37   620.42
                              671.78   707.62   721.45   750.58   815.25
                              849.79   906.48   953.60   989.73  1012.87
                             1016.21  1113.83  1127.29  1173.50  1241.47
                             1252.50  1325.82  1361.47  1384.80  1410.02
                             1416.98  1450.75  1460.55  1462.80  1504.56
                             1522.38  1537.24  1554.68  1596.47  1647.48
                             1662.79  1692.85  1711.43  1729.52  1752.23
                             1801.93  1855.58  1946.37  1955.92  1968.53
                             1992.36  2054.41  2081.18  2091.89  2119.37
                             2131.67  2156.15  2161.69  2169.79  2182.64
                             2186.72  2200.13  2237.06  2340.07  2373.87
                             2393.70  4501.04  4505.04  4617.56  4626.68
                             4637.51  4638.93  4639.14  4649.44  4658.86
                             4663.60  4667.62  4810.71  4861.91  5032.94

 Zero-point correction=                           0.254670 (Hartree/Particle)
 Thermal correction to Energy=                    0.271465
 Thermal correction to Enthalpy=                  0.272409
 Thermal correction to Gibbs Free Energy=         0.208922
 Sum of electronic and zero-point Energies=          -1215.187688
 Sum of electronic and thermal Energies=             -1215.170894
 Sum of electronic and thermal Enthalpies=           -1215.169949
 Sum of electronic and thermal Free Energies=        -1215.233437

                     E (Thermal)             CV                S
                      KCal/Mol        Cal/Mol-Kelvin    Cal/Mol-Kelvin
 Total                  170.347             63.760            133.621
 Electronic               0.000              0.000              0.000
 Translational            0.889              2.981             42.657
 Rotational               0.889              2.981             33.778
 Vibrational            168.569             57.798             57.186
 Vibration     1          0.593              1.984              5.859
 Vibration     2          0.594              1.981              5.223
 Vibration     3          0.596              1.976              4.641
 Vibration     4          0.597              1.972              4.365
 Vibration     5          0.602              1.956              3.664
 Vibration     6          0.604              1.948              3.421
 Vibration     7          0.617              1.906              2.708
 Vibration     8          0.627              1.874              2.387
 Vibration     9          0.638              1.839              2.130
 Vibration    10          0.648              1.809              1.950
 Vibration    11          0.659              1.773              1.773
 Vibration    12          0.666              1.754              1.694
 Vibration    13          0.671              1.736              1.625
 Vibration    14          0.698              1.657              1.369
 Vibration    15          0.700              1.653              1.358
 Vibration    16          0.727              1.576              1.167
 Vibration    17          0.753              1.503              1.022
 Vibration    18          0.758              1.490              0.998
 Vibration    19          0.774              1.448              0.925
 Vibration    20          0.792              1.402              0.855
 Vibration    21          0.824              1.323              0.746
 Vibration    22          0.848              1.268              0.679
 Vibration    23          0.857              1.247              0.655
 Vibration    24          0.877              1.202              0.606
 Vibration    25          0.923              1.103              0.511
 Vibration    26          0.948              1.052              0.466

 Optimization completed.
    -- Stationary point found.
 Normal termination of Gaussian 16 at Thu Sep 24 07:30:15 2020.

 ----------------------------------------------------------------------
 #p b3lyp/6-31G(d) scrf=(iefpcm,read,solvent=water) geom=allcheck guess
 =read
 ----------------------------------------------------------------------

 Structure from the checkpoint file:  "SM43_m2.b.7.pdb.xyz.mst.b.w.chk"
 -------------------
 SM43_m2.b.7.pdb.xyz
 -------------------
 Charge =  1 Multiplicity = 1

 SCF Done:  E(RB3LYP) =  -1215.44201828     A.U. after    8 cycles
 Normal termination of Gaussian 16 at Thu Sep 24 07:30:54 2020.

 -----------------------------
 #p B3LYP/6-31G* geom=allcheck
 -----------------------------

 Structure from the checkpoint file:  "SM43_m2.b.7.pdb.xyz.mst.b.w.chk"
 -------------------
 SM43_m2.b.7.pdb.xyz
 -------------------
 Charge =  1 Multiplicity = 1

 SCF Done:  E(RB3LYP) =  -1215.33439170     A.U. after   16 cycles
 Normal termination of Gaussian 16 at Thu Sep 24 07:31:39 2020.
 Gaussian 16:  ES64L-G16RevB.01 20-Dec-2017

 ----------------------------------------------------------------------
 #p mp2/aug-cc-pVDZ scf=(MaxCycle=2000,NoVarAcc,NoIncFock) maxdisk=120G
 B geom=allcheck
 ----------------------------------------------------------------------

 Structure from the checkpoint file:  "SM43_m2.b.7.pdb.xyz.mst.b.w.chk"
 -------------------
 SM43_m2.b.7.pdb.xyz
 -------------------
 Charge =  1 Multiplicity = 1

                         Standard orientation:
 ---------------------------------------------------------------------
 Center     Atomic      Atomic             Coordinates (Angstroms)
 Number     Number       Type             X           Y           Z
 ---------------------------------------------------------------------
      1          8           0       -4.023789    0.276810   -1.459935
      2         16           0       -2.846958   -0.111778   -0.710779
      3          7           0       -1.796420    1.139521   -0.710505
      4          6           0       -0.438071    1.066824   -0.344730
      5          7           0        0.094343    2.121465    0.239277
      6          8           0        1.441766    1.791549    0.382930
      7          6           0        1.666323    0.543656   -0.100629
      8          6           0        3.028113    0.028788   -0.029962
      9          6           0        4.065458    0.821525    0.488355
     10          6           0        5.363156    0.320207    0.548054
     11          6           0        5.639629   -0.971233    0.093743
     12          6           0        4.610852   -1.763599   -0.422597
     13          6           0        3.311138   -1.269720   -0.485525
     14          6           0        0.493207    0.030299   -0.585553
     15          7           0       -3.487764   -0.213089    1.051992
     16          6           0       -4.768803   -0.994008    1.075758
     17          6           0       -2.452392   -0.760993    1.982037
     18          8           0       -2.137439   -1.361823   -0.895436
     19          1           0       -2.243105    2.059029   -0.645825
     20          1           0        3.849210    1.823654    0.838645
     21          1           0        6.158957    0.938546    0.948701
     22          1           0        6.651497   -1.358667    0.141265
     23          1           0        4.821171   -2.767031   -0.776269
     24          1           0        2.516079   -1.888330   -0.886601
     25          1           0        0.309520   -0.923745   -1.046383
     26          1           0       -5.466571   -0.531889    0.382913
     27          1           0       -5.153049   -0.947335    2.093252
     28          1           0       -4.559402   -2.024129    0.794569
     29          1           0       -1.599878   -0.087032    2.007759
     30          1           0       -2.158661   -1.748640    1.635324
     31          1           0       -2.903867   -0.819539    2.970905
     32          1           0       -3.697643    0.765522    1.314690
 ---------------------------------------------------------------------

 SCF Done:  E(RHF) =  -1209.86985378     A.U. after   17 cycles
 E2 =    -0.2789759451D+01 EUMP2 =    -0.12126596132340D+04

 The electronic state is 1-A.
 Alpha  occ. eigenvalues --  -92.45363 -20.77725 -20.76831 -20.76586 -15.89632
 Alpha  occ. eigenvalues --  -15.81969 -15.75674 -11.47826 -11.46803 -11.46654
 Alpha  occ. eigenvalues --  -11.45610 -11.36566 -11.36133 -11.35257 -11.34799
 Alpha  occ. eigenvalues --  -11.34352 -11.33837 -11.33650  -9.41733  -7.10266
 Alpha  occ. eigenvalues --   -7.10216  -7.10202  -1.67707  -1.62048  -1.55337
 Alpha  occ. eigenvalues --   -1.49338  -1.45430  -1.29378  -1.26274  -1.20884
 Alpha  occ. eigenvalues --   -1.18061  -1.13143  -1.12400  -1.11916  -1.06495
 Alpha  occ. eigenvalues --   -0.99241  -0.99046  -0.95166  -0.93300  -0.91341
 Alpha  occ. eigenvalues --   -0.90526  -0.88736  -0.85449  -0.84023  -0.82586
 Alpha  occ. eigenvalues --   -0.79411  -0.79289  -0.78368  -0.77869  -0.76405
 Alpha  occ. eigenvalues --   -0.74932  -0.74747  -0.73745  -0.72284  -0.71158
 Alpha  occ. eigenvalues --   -0.70931  -0.69439  -0.69034  -0.68621  -0.67918
 Alpha  occ. eigenvalues --   -0.66755  -0.66637  -0.62041  -0.61149  -0.60291
 Alpha  occ. eigenvalues --   -0.59187  -0.53592  -0.51141  -0.43555  -0.41848
 Alpha virt. eigenvalues --   -0.09068  -0.06706  -0.05445  -0.05371  -0.04485
 Alpha virt. eigenvalues --   -0.03515  -0.03210  -0.03156  -0.02927  -0.02406
 Alpha virt. eigenvalues --   -0.02098  -0.01545  -0.01326  -0.00216   0.00341

 Mulliken charges:
               1
     1  O   -0.998393
     2  S    2.979407
     3  N   -0.865649
     4  C   -0.093259
     5  N   -0.274554
     6  O   -1.058458
     7  C   -0.003564
     8  C    1.446585
     9  C    0.332718
    10  C    0.244482
    11  C    0.560784
    12  C    0.080983
    13  C    0.629548
    14  C    1.860011
    15  N   -0.783366
    16  C    0.799988
    17  C    0.862265
    18  O   -1.049576
    19  H   -0.073242
    20  H   -0.663099
    21  H   -0.430681
    22  H   -0.419356
    23  H   -0.475817
    24  H   -0.590499
    25  H   -0.616540
    26  H   -0.070836
    27  H   -0.100908
    28  H   -0.051713
    29  H   -0.176185
    30  H   -0.044822
    31  H   -0.126713
    32  H    0.170460
 Sum of Mulliken charges =   1.00000

 Dipole moment (field-independent basis, Debye):
    X=             -9.6461    Y=             -2.1690    Z=              5.6261  Tot=             11.3756
 Quadrupole moment (field-independent basis, Debye-Ang):
   XX=            -27.1495   YY=           -105.1463   ZZ=           -104.6312
   XY=             -2.7151   XZ=            -22.8873   YZ=             -2.4887

 Normal termination of Gaussian 16 at Thu Sep 24 08:29:10 2020.
