 Gaussian 16, Revision B.01,

 ----------------------------------------------------------------------
 #p b3lyp/6-31G(d) opt freq NoSymm scf=(MaxCycle=2000,NoVarAcc,NoIncFoc
 k) scrf=(iefpcm,read,solvent=water) MaxDisk=20GB
 ----------------------------------------------------------------------

 --------------------
 SM43_m0.n.10.pdb.xyz
 --------------------
 Symbolic Z-matrix:
 Charge =  0 Multiplicity = 1

 SCF Done:  E(RB3LYP) =  -1215.00788545     A.U. after   13 cycles
 SCF Done:  E(RB3LYP) =  -1215.00788932     A.U. after    9 cycles
 SCF Done:  E(RB3LYP) =  -1215.00789491     A.U. after    8 cycles
 SCF Done:  E(RB3LYP) =  -1215.00789429     A.U. after    8 cycles
 SCF Done:  E(RB3LYP) =  -1215.00789154     A.U. after    8 cycles
 SCF Done:  E(RB3LYP) =  -1215.00789475     A.U. after    8 cycles
 SCF Done:  E(RB3LYP) =  -1215.00789645     A.U. after    9 cycles
 SCF Done:  E(RB3LYP) =  -1215.00789761     A.U. after    8 cycles
 SCF Done:  E(RB3LYP) =  -1215.00789979     A.U. after    8 cycles
 SCF Done:  E(RB3LYP) =  -1215.00790111     A.U. after    7 cycles
 SCF Done:  E(RB3LYP) =  -1215.00790149     A.U. after    7 cycles
 SCF Done:  E(RB3LYP) =  -1215.00790175     A.U. after    6 cycles
 Optimization completed.
    -- Stationary point found.
 Normal termination of Gaussian 16 at Mon Sep 14 19:15:49 2020.

 --------------------------------------------------------------------
 #P Geom=AllCheck Guess=TCheck SCRF=Check GenChk RB3LYP/6-31G(d) Freq
 --------------------------------------------------------------------

 Structure from the checkpoint file:  "SM43_m0.n.10.pdb.xyz.mst.n.w.chk"
 --------------------
 SM43_m0.n.10.pdb.xyz
 --------------------
 Charge =  0 Multiplicity = 1

 SCF Done:  E(RB3LYP) =  -1215.00790175     A.U. after    1 cycles

  Exact polarizability: 323.675   7.019 215.485  -5.616 -19.964 116.708
 Approx polarizability: 334.945  11.548 266.574  -6.577 -30.188 138.304

                      1                      2                      3
                      A                      A                      A
 Frequencies --     10.7645                26.8174                37.7636
 Red. masses --      5.4769                 4.5551                 4.7076
 Frc consts  --      0.0004                 0.0019                 0.0040
 IR Inten    --      4.4925                 3.4840                 5.8665

                      4                      5                      6
                      A                      A                      A
 Frequencies --     66.3699                86.4208               102.4865
 Red. masses --      3.6362                 4.6971                 4.1237
 Frc consts  --      0.0094                 0.0207                 0.0255
 IR Inten    --      0.6002                 4.2957                 3.6514

                      7                      8                      9
                      A                      A                      A
 Frequencies --    123.5200               150.4819               183.6570
 Red. masses --      6.4431                 1.5526                 1.7466
 Frc consts  --      0.0579                 0.0207                 0.0347
 IR Inten    --      2.4016                 3.6113                 0.9930

                     10                     11                     12
                      A                      A                      A
 Frequencies --    211.5219               225.2120               251.8147
 Red. masses --      1.1793                 5.0324                 5.3720
 Frc consts  --      0.0311                 0.1504                 0.2007
 IR Inten    --      1.3902                 0.1908                 4.4471

                     13                     14                     15
                      A                      A                      A
 Frequencies --    272.1870               307.7924               326.0321
 Red. masses --      4.0464                 8.9197                 4.1596
 Frc consts  --      0.1766                 0.4979                 0.2605
 IR Inten    --      1.7874                10.1309                23.4416

                     16                     17                     18
                      A                      A                      A
 Frequencies --    356.7555               376.7018               387.8203
 Red. masses --      2.8005                 5.7390                 8.0004
 Frc consts  --      0.2100                 0.4798                 0.7090
 IR Inten    --      5.4731                26.7387                 9.6786

                     19                     20                     21
                      A                      A                      A
 Frequencies --    410.7195               428.0815               467.3674
 Red. masses --      2.9567                 1.7157                 4.2903
 Frc consts  --      0.2939                 0.1852                 0.5521
 IR Inten    --      0.1212                85.5236                34.8645

                     22                     23                     24
                      A                      A                      A
 Frequencies --    478.4629               490.0789               500.4880
 Red. masses --      5.7642                 5.6299                 4.2100
 Frc consts  --      0.7775                 0.7967                 0.6213
 IR Inten    --     25.2132                49.4516                 8.4431

                     25                     26                     27
                      A                      A                      A
 Frequencies --    556.0081               630.4946               659.0227
 Red. masses --     10.7548                 6.4449                 7.9563
 Frc consts  --      1.9589                 1.5095                 2.0359
 IR Inten    --    214.7704                 0.0531                 2.7995

                     28                     29                     30
                      A                      A                      A
 Frequencies --    674.6224               692.8009               703.1212
 Red. masses --      6.0242                 5.6012                 1.8111
 Frc consts  --      1.6154                 1.5840                 0.5275
 IR Inten    --    136.1799                26.3758                64.2111

                     31                     32                     33
                      A                      A                      A
 Frequencies --    707.7249               776.7646               787.0281
 Red. masses --      3.8129                 1.4092                 4.0658
 Frc consts  --      1.1252                 0.5009                 1.4838
 IR Inten    --     44.8993               130.0595               118.8167

                     34                     35                     36
                      A                      A                      A
 Frequencies --    804.6951               828.1937               864.6986
 Red. masses --      2.2896                 5.9381                 1.2553
 Frc consts  --      0.8735                 2.3997                 0.5530
 IR Inten    --     10.3835               265.0189                 0.1155

                     37                     38                     39
                      A                      A                      A
 Frequencies --    943.8019               953.7232               961.0140
 Red. masses --      1.3926                 3.1552                 8.9296
 Frc consts  --      0.7309                 1.6909                 4.8589
 IR Inten    --      3.0982               138.1010                28.6470

                     40                     41                     42
                      A                      A                      A
 Frequencies --    967.8926               985.9683              1014.4471
 Red. masses --      9.9686                 1.3517                 1.2691
 Frc consts  --      5.5022                 0.7742                 0.7695
 IR Inten    --     70.0304                 0.0543                 0.0419

                     43                     44                     45
                      A                      A                      A
 Frequencies --   1016.9903              1048.1644              1064.6096
 Red. masses --      6.1138                 2.4748                 2.4715
 Frc consts  --      3.7256                 1.6020                 1.6504
 IR Inten    --      0.9217                 4.8702                28.0758

                     46                     47                     48
                      A                      A                      A
 Frequencies --   1070.7124              1089.4051              1110.1647
 Red. masses --      1.5566                 3.5108                 1.6054
 Frc consts  --      1.0514                 2.4549                 1.1658
 IR Inten    --     22.9351                48.3331                26.1690

                     49                     50                     51
                      A                      A                      A
 Frequencies --   1115.1885              1134.5783              1176.2731
 Red. masses --     11.4231                 1.2176                 1.3686
 Frc consts  --      8.3701                 0.9234                 1.1156
 IR Inten    --    307.1880                 3.3389                 0.5160

                     52                     53                     54
                      A                      A                      A
 Frequencies --   1190.2909              1203.9790              1218.4503
 Red. masses --      1.0986                 1.2324                 1.7800
 Frc consts  --      0.9171                 1.0526                 1.5570
 IR Inten    --      0.4311                22.4142                27.6444

                     55                     56                     57
                      A                      A                      A
 Frequencies --   1228.3248              1286.9198              1292.6674
 Red. masses --      3.7826                 1.9900                 4.6485
 Frc consts  --      3.3626                 1.9418                 4.5766
 IR Inten    --     32.8462                29.7954                41.0254

                     58                     59                     60
                      A                      A                      A
 Frequencies --   1312.1660              1347.2000              1368.9203
 Red. masses --      6.5820                 2.8734                 2.2017
 Frc consts  --      6.6770                 3.0726                 2.4309
 IR Inten    --    263.7925                29.7463                 0.7143

                     61                     62                     63
                      A                      A                      A
 Frequencies --   1391.8390              1455.0152              1470.2448
 Red. masses --      1.9542                 1.1421                 1.1508
 Frc consts  --      2.2305                 1.4246                 1.4656
 IR Inten    --     64.2284                 0.2322                 7.3464

                     64                     65                     66
                      A                      A                      A
 Frequencies --   1492.6729              1503.6222              1508.7052
 Red. masses --      2.4036                 1.0474                 1.0770
 Frc consts  --      3.1553                 1.3953                 1.4444
 IR Inten    --     59.8873                 6.7900                 6.8410

                     67                     68                     69
                      A                      A                      A
 Frequencies --   1514.2373              1516.1659              1522.3430
 Red. masses --      3.2451                 1.0931                 1.7329
 Frc consts  --      4.3840                 1.4805                 2.3662
 IR Inten    --    601.2486                11.2833               118.3620

                     70                     71                     72
                      A                      A                      A
 Frequencies --   1523.7757              1557.7146              1630.0689
 Red. masses --      1.2882                 3.5131                 5.4688
 Frc consts  --      1.7623                 5.0224                 8.5616
 IR Inten    --     74.2606                24.9605               101.5240

                     73                     74                     75
                      A                      A                      A
 Frequencies --   1653.8688              1667.0713              3062.4302
 Red. masses --      6.4377                 6.0697                 1.0422
 Frc consts  --     10.3749                 9.9386                 5.7589
 IR Inten    --    109.4383                72.7522                50.2378

                     76                     77                     78
                      A                      A                      A
 Frequencies --   3074.5194              3147.1752              3150.5145
 Red. masses --      1.0389                 1.0955                 1.1015
 Frc consts  --      5.7860                 6.3931                 6.4414
 IR Inten    --     48.6460                47.1103                 9.0744

                     79                     80                     81
                      A                      A                      A
 Frequencies --   3195.3763              3207.4055              3208.2411
 Red. masses --      1.1034                 1.1016                 1.0859
 Frc consts  --      6.6381                 6.6769                 6.5851
 IR Inten    --      7.8913                 6.0472                 1.7729

                     82                     83                     84
                      A                      A                      A
 Frequencies --   3214.7547              3222.7670              3230.9560
 Red. masses --      1.0884                 1.0925                 1.0959
 Frc consts  --      6.6273                 6.6857                 6.7401
 IR Inten    --      5.1603                38.4959                40.5009

                     85                     86                     87
                      A                      A                      A
 Frequencies --   3239.2242              3310.2730              3563.2495
 Red. masses --      1.0950                 1.0992                 1.0774
 Frc consts  --      6.7696                 7.0964                 8.0600
 IR Inten    --     13.2561                 1.9869               218.4973

 - Thermochemistry -
 -------------------
 Temperature   298.150 Kelvin.  Pressure   1.00000 Atm.
 Atom     1 has atomic number  8 and mass  15.99491

 Molecular mass:   267.06776 amu.
 Principal axes and moments of inertia in atomic units:
                           1         2         3
     Eigenvalues --  1464.37476********************
           X            0.99995  -0.00783  -0.00565
           Y            0.00777   0.99992  -0.01027
           Z            0.00573   0.01022   0.99993
 This molecule is an asymmetric top.
 Rotational symmetry number  1.
 Warning -- assumption of classical behavior for rotation
           may cause significant error
 Rotational temperatures (Kelvin)      0.05915     0.00734     0.00701
 Rotational constants (GHZ):           1.23243     0.15289     0.14597
 Zero-point vibrational energy     629837.3 (Joules/Mol)
                                  150.53473 (Kcal/Mol)
 Warning -- explicit consideration of  25 degrees of freedom as
           vibrations may cause significant error
 Vibrational temperatures:     15.49    38.58    54.33    95.49   124.34
          (Kelvin)            147.46   177.72   216.51   264.24   304.33
                              324.03   362.31   391.62   442.84   469.09
                              513.29   541.99   557.99   590.93   615.91
                              672.44   688.40   705.11   720.09   799.97
                              907.14   948.19   970.63   996.79  1011.63
                             1018.26  1117.59  1132.36  1157.78  1191.59
                             1244.11  1357.92  1372.19  1382.68  1392.58
                             1418.59  1459.56  1463.22  1508.07  1531.74
                             1540.52  1567.41  1597.28  1604.51  1632.41
                             1692.39  1712.56  1732.26  1753.08  1767.29
                             1851.59  1859.86  1887.91  1938.32  1969.57
                             2002.55  2093.44  2115.35  2147.62  2163.38
                             2170.69  2178.65  2181.42  2190.31  2192.37
                             2241.20  2345.31  2379.55  2398.54  4406.15
                             4423.55  4528.08  4532.89  4597.43  4614.74
                             4615.94  4625.32  4636.84  4648.62  4660.52
                             4762.74  5126.72

 Zero-point correction=                           0.239892 (Hartree/Particle)
 Thermal correction to Energy=                    0.256901
 Thermal correction to Enthalpy=                  0.257845
 Thermal correction to Gibbs Free Energy=         0.192301
 Sum of electronic and zero-point Energies=          -1214.768009
 Sum of electronic and thermal Energies=             -1214.751000
 Sum of electronic and thermal Enthalpies=           -1214.750056
 Sum of electronic and thermal Free Energies=        -1214.815601

                     E (Thermal)             CV                S
                      KCal/Mol        Cal/Mol-Kelvin    Cal/Mol-Kelvin
 Total                  161.208             63.507            137.950
 Electronic               0.000              0.000              0.000
 Translational            0.889              2.981             42.646
 Rotational               0.889              2.981             33.724
 Vibrational            159.431             57.546             61.580
 Vibration     1          0.593              1.987              7.865
 Vibration     2          0.593              1.984              6.052
 Vibration     3          0.594              1.982              5.373
 Vibration     4          0.598              1.970              4.258
 Vibration     5          0.601              1.959              3.740
 Vibration     6          0.605              1.947              3.406
 Vibration     7          0.610              1.929              3.045
 Vibration     8          0.618              1.902              2.666
 Vibration     9          0.631              1.862              2.291
 Vibration    10          0.643              1.823              2.030
 Vibration    11          0.650              1.803              1.917
 Vibration    12          0.664              1.760              1.718
 Vibration    13          0.675              1.725              1.582
 Vibration    14          0.698              1.659              1.374
 Vibration    15          0.710              1.623              1.280
 Vibration    16          0.732              1.561              1.136
 Vibration    17          0.747              1.520              1.052
 Vibration    18          0.756              1.496              1.009
 Vibration    19          0.775              1.447              0.924
 Vibration    20          0.790              1.409              0.865
 Vibration    21          0.825              1.322              0.745
 Vibration    22          0.835              1.298              0.714
 Vibration    23          0.846              1.272              0.683
 Vibration    24          0.856              1.249              0.657
 Vibration    25          0.911              1.127              0.532

                           ! Non-Optimized Parameters !
 Normal termination of Gaussian 16 at Mon Sep 14 19:24:12 2020.

 ----------------------------------------------------------------------
 #p b3lyp/6-31G(d) scrf=(iefpcm,read,solvent=water) geom=allcheck guess
 =read
 ----------------------------------------------------------------------

 Structure from the checkpoint file:  "SM43_m0.n.10.pdb.xyz.mst.n.w.chk"
 --------------------
 SM43_m0.n.10.pdb.xyz
 --------------------
 Charge =  0 Multiplicity = 1

 SCF Done:  E(RB3LYP) =  -1215.00790043     A.U. after    5 cycles
 Normal termination of Gaussian 16 at Mon Sep 14 19:24:45 2020.

 -----------------------------
 #p B3LYP/6-31G* geom=allcheck
 -----------------------------

 Structure from the checkpoint file:  "SM43_m0.n.10.pdb.xyz.mst.n.w.chk"
 --------------------
 SM43_m0.n.10.pdb.xyz
 --------------------
 Charge =  0 Multiplicity = 1

 SCF Done:  E(RB3LYP) =  -1214.98627804     A.U. after   15 cycles
 Normal termination of Gaussian 16 at Mon Sep 14 19:25:23 2020.
 Gaussian 16:  ES64L-G16RevB.01 20-Dec-2017

 ----------------------------------------------------------------------
 #p mp2/aug-cc-pVDZ scf=(MaxCycle=2000,NoVarAcc,NoIncFock) maxdisk=180G
 B geom=allcheck
 ----------------------------------------------------------------------

 Structure from the checkpoint file:  "SM43_m0.n.10.pdb.xyz.mst.n.w.chk"
 --------------------
 SM43_m0.n.10.pdb.xyz
 --------------------
 Charge =  0 Multiplicity = 1

                         Standard orientation:
 ---------------------------------------------------------------------
 Center     Atomic      Atomic             Coordinates (Angstroms)
 Number     Number       Type             X           Y           Z
 ---------------------------------------------------------------------
      1          8           0       -2.736602    0.123330   -1.811218
      2         16           0       -3.088272   -0.505003   -0.539363
      3          7           0       -1.670483   -0.976291    0.287644
      4          6           0       -0.424256   -0.376429    0.131828
      5          7           0       -0.289419    0.916044   -0.099253
      6          8           0        1.098475    1.125562   -0.151659
      7          6           0        1.744655   -0.045797    0.066553
      8          6           0        3.203279   -0.021837    0.056747
      9          6           0        3.925279   -1.195848    0.325817
     10          6           0        5.316668   -1.179220    0.318060
     11          6           0        6.003801    0.006326    0.043209
     12          6           0        5.290954    1.177236   -0.224363
     13          6           0        3.898042    1.167339   -0.218657
     14          6           0        0.826668   -1.040968    0.250864
     15          7           0       -3.871582    0.635492    0.372073
     16          6           0       -4.241023    0.216816    1.732390
     17          6           0       -3.427990    2.032398    0.255164
     18          8           0       -3.894237   -1.725485   -0.500002
     19          1           0       -1.652975   -1.984511    0.427604
     20          1           0        3.395457   -2.116778    0.542524
     21          1           0        5.865452   -2.090945    0.527617
     22          1           0        7.088360    0.016938    0.038107
     23          1           0        5.819881    2.099726   -0.438416
     24          1           0        3.342795    2.074153   -0.427135
     25          1           0        0.998388   -2.088640    0.434732
     26          1           0       -4.643139   -0.794670    1.704166
     27          1           0       -5.018670    0.897169    2.083200
     28          1           0       -3.387654    0.259309    2.419044
     29          1           0       -3.229095    2.261253   -0.789249
     30          1           0       -2.534089    2.234813    0.853330
     31          1           0       -4.249519    2.658158    0.608390
 ---------------------------------------------------------------------

 SCF Done:  E(RHF) =  -1209.53039772     A.U. after   17 cycles
 E2 =    -0.2783269865D+01 EUMP2 =    -0.12123136675892D+04

 The electronic state is 1-A.
 Alpha  occ. eigenvalues --  -92.25216 -20.65690 -20.56426 -20.56282 -15.63596
 Alpha  occ. eigenvalues --  -15.62365 -15.61640 -11.34624 -11.34478 -11.27967
 Alpha  occ. eigenvalues --  -11.27717 -11.26955 -11.26891 -11.26550 -11.26512
 Alpha  occ. eigenvalues --  -11.26203 -11.26043 -11.25574  -9.21592  -6.90159
 Alpha  occ. eigenvalues --   -6.90104  -6.90063  -1.49685  -1.47565  -1.34767
 Alpha  occ. eigenvalues --   -1.28091  -1.25463  -1.18531  -1.14460  -1.10086
 Alpha  occ. eigenvalues --   -1.03976  -1.03258  -0.98057  -0.95962  -0.88825
 Alpha  occ. eigenvalues --   -0.87027  -0.84701  -0.81824  -0.78028  -0.75645
 Alpha  occ. eigenvalues --   -0.72765  -0.71324  -0.69832  -0.67305  -0.66877
 Alpha  occ. eigenvalues --   -0.66004  -0.65482  -0.64051  -0.63382  -0.61357
 Alpha  occ. eigenvalues --   -0.61111  -0.60633  -0.58275  -0.57160  -0.56934
 Alpha  occ. eigenvalues --   -0.54870  -0.53926  -0.53003  -0.52561  -0.51437
 Alpha  occ. eigenvalues --   -0.51392  -0.49590  -0.48929  -0.47937  -0.46985
 Alpha  occ. eigenvalues --   -0.41541  -0.41257  -0.38722  -0.35737  -0.32588
 Alpha virt. eigenvalues --    0.02505   0.03159   0.03623   0.04179   0.04703
 Alpha virt. eigenvalues --    0.05223   0.05587   0.05701   0.06276   0.07129
 Alpha virt. eigenvalues --    0.07670   0.08089   0.08809   0.09230   0.09453

 Mulliken charges:
               1
     1  O   -1.117298
     2  S    3.021202
     3  N   -0.889397
     4  C   -0.313877
     5  N   -0.195836
     6  O   -1.087517
     7  C    0.029256
     8  C    1.487708
     9  C    0.610112
    10  C    0.049553
    11  C    0.525321
    12  C    0.187560
    13  C    0.398344
    14  C    1.796532
    15  N   -1.151418
    16  C    0.727462
    17  C    0.866690
    18  O   -1.084801
    19  H   -0.032770
    20  H   -0.583944
    21  H   -0.482698
    22  H   -0.433212
    23  H   -0.440670
    24  H   -0.654708
    25  H   -0.586304
    26  H   -0.132084
    27  H   -0.164447
    28  H   -0.018524
    29  H   -0.136076
    30  H   -0.002627
    31  H   -0.191534
 Sum of Mulliken charges =  -0.00000

 Dipole moment (field-independent basis, Debye):
    X=              4.2266    Y=             -0.6432    Z=              4.5296  Tot=              6.2286
 Quadrupole moment (field-independent basis, Debye-Ang):
   XX=            -99.9108   YY=           -105.8541   ZZ=           -120.9798
   XY=            -11.3272   XZ=            -14.6498   YZ=             -3.2027

 Normal termination of Gaussian 16 at Mon Sep 14 20:01:32 2020.
