 Gaussian 16, Revision B.01,

 ----------------------------------------------------------------------
 #p b3lyp/6-31G(d) opt freq NoSymm scf=(MaxCycle=2000,NoVarAcc,NoIncFoc
 k) scrf=(iefpcm,read,solvent=water) MaxDisk=20GB
 ----------------------------------------------------------------------

 -------------------
 SM43_m0.n.7.pdb.xyz
 -------------------
 Symbolic Z-matrix:
 Charge =  0 Multiplicity = 1

 SCF Done:  E(RB3LYP) =  -1215.00596923     A.U. after   13 cycles
 SCF Done:  E(RB3LYP) =  -1215.00593735     A.U. after    9 cycles
 SCF Done:  E(RB3LYP) =  -1215.00596376     A.U. after    8 cycles
 SCF Done:  E(RB3LYP) =  -1215.00597803     A.U. after    9 cycles
 SCF Done:  E(RB3LYP) =  -1215.00596645     A.U. after    9 cycles
 SCF Done:  E(RB3LYP) =  -1215.00596774     A.U. after    9 cycles
 SCF Done:  E(RB3LYP) =  -1215.00598023     A.U. after    9 cycles
 SCF Done:  E(RB3LYP) =  -1215.00597277     A.U. after    9 cycles
 SCF Done:  E(RB3LYP) =  -1215.00597336     A.U. after    9 cycles
 SCF Done:  E(RB3LYP) =  -1215.00598161     A.U. after    9 cycles
 SCF Done:  E(RB3LYP) =  -1215.00598158     A.U. after    9 cycles
 SCF Done:  E(RB3LYP) =  -1215.00598241     A.U. after    7 cycles
 SCF Done:  E(RB3LYP) =  -1215.00598278     A.U. after    7 cycles
 SCF Done:  E(RB3LYP) =  -1215.00598311     A.U. after    7 cycles
 SCF Done:  E(RB3LYP) =  -1215.00598315     A.U. after    7 cycles
 SCF Done:  E(RB3LYP) =  -1215.00598353     A.U. after    7 cycles
 Optimization completed.
    -- Stationary point found.
 Normal termination of Gaussian 16 at Mon Sep 14 19:24:56 2020.

 --------------------------------------------------------------------
 #P Geom=AllCheck Guess=TCheck SCRF=Check GenChk RB3LYP/6-31G(d) Freq
 --------------------------------------------------------------------

 Structure from the checkpoint file:  "SM43_m0.n.7.pdb.xyz.mst.n.w.chk"
 -------------------
 SM43_m0.n.7.pdb.xyz
 -------------------
 Charge =  0 Multiplicity = 1

 SCF Done:  E(RB3LYP) =  -1215.00598353     A.U. after    1 cycles

  Exact polarizability: 319.147 -16.776 211.077  23.332  17.684 124.343
 Approx polarizability: 335.450 -18.627 261.493  32.758  25.771 144.571

                      1                      2                      3
                      A                      A                      A
 Frequencies --     15.5910                27.3679                42.0555
 Red. masses --      5.0284                 3.8404                 4.6619
 Frc consts  --      0.0007                 0.0017                 0.0049
 IR Inten    --      4.6889                 1.6895                 7.4791

                      4                      5                      6
                      A                      A                      A
 Frequencies --     52.6243                67.0702                89.1591
 Red. masses --      3.4914                 5.8170                 5.0292
 Frc consts  --      0.0057                 0.0154                 0.0236
 IR Inten    --      1.5839                 2.7245                 0.0313

                      7                      8                      9
                      A                      A                      A
 Frequencies --    152.9727               168.8602               207.0064
 Red. masses --      4.7648                 2.8697                 2.2438
 Frc consts  --      0.0657                 0.0482                 0.0566
 IR Inten    --      2.9685                25.1316                 0.8939

                     10                     11                     12
                      A                      A                      A
 Frequencies --    211.3592               223.7189               243.4144
 Red. masses --      1.1300                 1.6307                 4.0534
 Frc consts  --      0.0297                 0.0481                 0.1415
 IR Inten    --      1.0699                10.9243                 1.5541

                     13                     14                     15
                      A                      A                      A
 Frequencies --    258.2982               307.3500               345.2530
 Red. masses --      8.3197                 7.4773                 3.6097
 Frc consts  --      0.3270                 0.4162                 0.2535
 IR Inten    --      1.1284                 4.4796                 8.7853

                     16                     17                     18
                      A                      A                      A
 Frequencies --    348.4198               368.2256               376.3264
 Red. masses --      3.0586                 5.4060                 6.3996
 Frc consts  --      0.2188                 0.4319                 0.5340
 IR Inten    --     11.3778                 8.6291                 6.6811

                     19                     20                     21
                      A                      A                      A
 Frequencies --    410.9567               444.2540               479.9853
 Red. masses --      2.9640                 6.4576                 5.8363
 Frc consts  --      0.2949                 0.7509                 0.7922
 IR Inten    --      0.0360                29.1302                21.4199

                     22                     23                     24
                      A                      A                      A
 Frequencies --    494.2146               498.3470               509.3718
 Red. masses --      3.2211                 3.8088                 2.2832
 Frc consts  --      0.4635                 0.5573                 0.3490
 IR Inten    --      4.0691                40.7674               148.4025

                     25                     26                     27
                      A                      A                      A
 Frequencies --    568.0863               630.3484               661.3525
 Red. masses --      8.0588                 6.4370                 8.1841
 Frc consts  --      1.5323                 1.5069                 2.1091
 IR Inten    --    166.6743                 0.0658                 4.4359

                     28                     29                     30
                      A                      A                      A
 Frequencies --    679.3547               689.8227               703.8679
 Red. masses --      7.2085                 6.1278                 1.7596
 Frc consts  --      1.9602                 1.7180                 0.5136
 IR Inten    --    161.8412               160.7884                38.0779

                     31                     32                     33
                      A                      A                      A
 Frequencies --    706.5442               776.0673               784.9842
 Red. masses --      4.2784                 4.0150                 1.5867
 Frc consts  --      1.2584                 1.4247                 0.5761
 IR Inten    --     12.7741                11.1485                76.0009

                     34                     35                     36
                      A                      A                      A
 Frequencies --    816.0112               863.7473               881.2619
 Red. masses --      1.6748                 1.2534                 5.3318
 Frc consts  --      0.6571                 0.5510                 2.4397
 IR Inten    --     18.3177                 0.0742               165.8811

                     37                     38                     39
                      A                      A                      A
 Frequencies --    929.3521               943.7461               959.2257
 Red. masses --      3.2573                 1.3906                 9.8118
 Frc consts  --      1.6576                 0.7297                 5.3191
 IR Inten    --    178.7998                 3.1522                 9.5212

                     40                     41                     42
                      A                      A                      A
 Frequencies --    966.5958               984.1503              1014.7222
 Red. masses --     10.6616                 1.3502                 1.2672
 Frc consts  --      5.8690                 0.7705                 0.7688
 IR Inten    --     53.9773                 0.0010                 0.0540

                     43                     44                     45
                      A                      A                      A
 Frequencies --   1016.4491              1042.2411              1054.0395
 Red. masses --      6.0665                 2.5139                 2.7160
 Frc consts  --      3.6929                 1.6089                 1.7778
 IR Inten    --      0.6750                14.5688                39.3139

                     46                     47                     48
                      A                      A                      A
 Frequencies --   1061.3059              1080.1736              1108.0806
 Red. masses --      1.6061                 2.5924                 1.5790
 Frc consts  --      1.0659                 1.7821                 1.1423
 IR Inten    --     26.7255                 5.2646                29.4798

                     49                     50                     51
                      A                      A                      A
 Frequencies --   1116.0093              1126.9278              1172.7938
 Red. masses --      8.7721                 1.2781                 1.3804
 Frc consts  --      6.4371                 0.9563                 1.1187
 IR Inten    --    333.2152                 8.6386                 4.5865

                     52                     53                     54
                      A                      A                      A
 Frequencies --   1188.7333              1200.4161              1211.3183
 Red. masses --      1.1014                 1.2028                 3.1415
 Frc consts  --      0.9170                 1.0212                 2.7159
 IR Inten    --      0.3617                12.6405                79.7101

                     55                     56                     57
                      A                      A                      A
 Frequencies --   1219.7451              1269.4847              1292.1265
 Red. masses --      2.1141                 1.9356                 4.8641
 Frc consts  --      1.8532                 1.8379                 4.7848
 IR Inten    --      2.9004                35.7872                66.5329

                     58                     59                     60
                      A                      A                      A
 Frequencies --   1300.5210              1353.7529              1366.9869
 Red. masses --      7.1236                 3.1915                 2.0784
 Frc consts  --      7.0988                 3.4460                 2.2883
 IR Inten    --    249.9074                29.2138                 4.2539

                     61                     62                     63
                      A                      A                      A
 Frequencies --   1389.5517              1449.7515              1469.2809
 Red. masses --      1.7464                 1.1421                 1.1628
 Frc consts  --      1.9867                 1.4142                 1.4789
 IR Inten    --    238.9870                 4.6534                 8.7195

                     64                     65                     66
                      A                      A                      A
 Frequencies --   1485.0561              1501.6564              1503.9238
 Red. masses --      3.1797                 1.0593                 3.0755
 Frc consts  --      4.1316                 1.4074                 4.0985
 IR Inten    --    223.2686                21.0799               326.9335

                     67                     68                     69
                      A                      A                      A
 Frequencies --   1512.5617              1514.6428              1518.0843
 Red. masses --      1.0594                 1.2235                 2.1234
 Frc consts  --      1.4281                 1.6538                 2.8832
 IR Inten    --     30.2667                 3.1238                35.5224

                     70                     71                     72
                      A                      A                      A
 Frequencies --   1528.0980              1552.5195              1626.8932
 Red. masses --      1.0544                 3.1508                 5.5759
 Frc consts  --      1.4507                 4.4746                 8.6952
 IR Inten    --     19.6711                88.0353               147.2596

                     73                     74                     75
                      A                      A                      A
 Frequencies --   1651.4874              1664.4542              3057.4811
 Red. masses --      6.5411                 6.0521                 1.0453
 Frc consts  --     10.5112                 9.8787                 5.7571
 IR Inten    --    107.9081                58.0795                66.0359

                     76                     77                     78
                      A                      A                      A
 Frequencies --   3064.6977              3147.1431              3150.0360
 Red. masses --      1.0411                 1.0928                 1.0965
 Frc consts  --      5.7612                 6.3773                 6.4106
 IR Inten    --     54.4712                40.5505                 8.6010

                     79                     80                     81
                      A                      A                      A
 Frequencies --   3182.0592              3204.9813              3207.6015
 Red. masses --      1.1052                 1.1024                 1.0860
 Frc consts  --      6.5933                 6.6719                 6.5830
 IR Inten    --     13.4231                 6.8632                 2.7946

                     82                     83                     84
                      A                      A                      A
 Frequencies --   3213.6712              3222.1560              3230.2320
 Red. masses --      1.0885                 1.0926                 1.0952
 Frc consts  --      6.6232                 6.6836                 6.7332
 IR Inten    --      5.6379                36.1560                39.5674

                     85                     86                     87
                      A                      A                      A
 Frequencies --   3237.0620              3349.3105              3518.4242
 Red. masses --      1.0957                 1.0984                 1.0763
 Frc consts  --      6.7645                 7.2599                 7.8504
 IR Inten    --     14.5115                 9.3570               201.8548

 - Thermochemistry -
 -------------------
 Temperature   298.150 Kelvin.  Pressure   1.00000 Atm.
 Atom     1 has atomic number  8 and mass  15.99491

 Molecular mass:   267.06776 amu.
 Principal axes and moments of inertia in atomic units:
                           1         2         3
     Eigenvalues --  1717.78763********************
           X            0.99995  -0.00195  -0.00948
           Y            0.00125   0.99733  -0.07298
           Z            0.00960   0.07296   0.99729
 This molecule is an asymmetric top.
 Rotational symmetry number  1.
 Warning -- assumption of classical behavior for rotation
           may cause significant error
 Rotational temperatures (Kelvin)      0.05042     0.00788     0.00758
 Rotational constants (GHZ):           1.05062     0.16428     0.15792
 Zero-point vibrational energy     629447.3 (Joules/Mol)
                                  150.44151 (Kcal/Mol)
 Warning -- explicit consideration of  25 degrees of freedom as
           vibrations may cause significant error
 Vibrational temperatures:     22.43    39.38    60.51    75.71    96.50
          (Kelvin)            128.28   220.09   242.95   297.84   304.10
                              321.88   350.22   371.63   442.21   496.74
                              501.30   529.79   541.45   591.28   639.18
                              690.59   711.06   717.01   732.87   817.35
                              906.93   951.54   977.44   992.50  1012.71
                             1016.56  1116.59  1129.42  1174.06  1242.74
                             1267.94  1337.13  1357.84  1380.11  1390.72
                             1415.97  1459.96  1462.44  1499.55  1516.53
                             1526.98  1554.13  1594.28  1605.69  1621.40
                             1687.39  1710.32  1727.13  1742.82  1754.94
                             1826.51  1859.08  1871.16  1947.75  1966.79
                             1999.26  2085.87  2113.97  2136.66  2160.55
                             2163.81  2176.24  2179.23  2184.18  2198.59
                             2233.73  2340.74  2376.12  2394.78  4399.03
                             4409.42  4528.04  4532.20  4578.27  4611.25
                             4615.02  4623.76  4635.96  4647.58  4657.41
                             4818.91  5062.23

 Zero-point correction=                           0.239744 (Hartree/Particle)
 Thermal correction to Energy=                    0.256685
 Thermal correction to Enthalpy=                  0.257629
 Thermal correction to Gibbs Free Energy=         0.192377
 Sum of electronic and zero-point Energies=          -1214.766240
 Sum of electronic and thermal Energies=             -1214.749298
 Sum of electronic and thermal Enthalpies=           -1214.748354
 Sum of electronic and thermal Free Energies=        -1214.813606

                     E (Thermal)             CV                S
                      KCal/Mol        Cal/Mol-Kelvin    Cal/Mol-Kelvin
 Total                  161.072             63.364            137.334
 Electronic               0.000              0.000              0.000
 Translational            0.889              2.981             42.646
 Rotational               0.889              2.981             33.733
 Vibrational            159.295             57.402             60.955
 Vibration     1          0.593              1.986              7.129
 Vibration     2          0.593              1.984              6.012
 Vibration     3          0.595              1.980              5.160
 Vibration     4          0.596              1.977              4.716
 Vibration     5          0.598              1.970              4.238
 Vibration     6          0.602              1.957              3.678
 Vibration     7          0.619              1.899              2.635
 Vibration     8          0.625              1.881              2.448
 Vibration     9          0.641              1.830              2.070
 Vibration    10          0.643              1.824              2.032
 Vibration    11          0.649              1.805              1.929
 Vibration    12          0.659              1.774              1.778
 Vibration    13          0.667              1.749              1.673
 Vibration    14          0.697              1.660              1.377
 Vibration    15          0.724              1.585              1.188
 Vibration    16          0.726              1.578              1.173
 Vibration    17          0.741              1.538              1.087
 Vibration    18          0.747              1.521              1.054
 Vibration    19          0.775              1.446              0.923
 Vibration    20          0.804              1.374              0.813
 Vibration    21          0.836              1.294              0.710
 Vibration    22          0.850              1.263              0.673
 Vibration    23          0.854              1.254              0.662
 Vibration    24          0.865              1.229              0.635
 Vibration    25          0.924              1.100              0.508

                           ! Non-Optimized Parameters !
 Normal termination of Gaussian 16 at Mon Sep 14 19:33:59 2020.

 ----------------------------------------------------------------------
 #p b3lyp/6-31G(d) scrf=(iefpcm,read,solvent=water) geom=allcheck guess
 =read
 ----------------------------------------------------------------------

 Structure from the checkpoint file:  "SM43_m0.n.7.pdb.xyz.mst.n.w.chk"
 -------------------
 SM43_m0.n.7.pdb.xyz
 -------------------
 Charge =  0 Multiplicity = 1

 SCF Done:  E(RB3LYP) =  -1215.00597327     A.U. after    7 cycles
 Normal termination of Gaussian 16 at Mon Sep 14 19:34:40 2020.

 -----------------------------
 #p B3LYP/6-31G* geom=allcheck
 -----------------------------

 Structure from the checkpoint file:  "SM43_m0.n.7.pdb.xyz.mst.n.w.chk"
 -------------------
 SM43_m0.n.7.pdb.xyz
 -------------------
 Charge =  0 Multiplicity = 1

 SCF Done:  E(RB3LYP) =  -1214.98765037     A.U. after   15 cycles
 Normal termination of Gaussian 16 at Mon Sep 14 19:35:23 2020.
 Gaussian 16:  ES64L-G16RevB.01 20-Dec-2017

 ----------------------------------------------------------------------
 #p mp2/aug-cc-pVDZ scf=(MaxCycle=2000,NoVarAcc,NoIncFock) maxdisk=180G
 B geom=allcheck
 ----------------------------------------------------------------------

 Structure from the checkpoint file:  "SM43_m0.n.7.pdb.xyz.mst.n.w.chk"
 -------------------
 SM43_m0.n.7.pdb.xyz
 -------------------
 Charge =  0 Multiplicity = 1

                         Standard orientation:
 ---------------------------------------------------------------------
 Center     Atomic      Atomic             Coordinates (Angstroms)
 Number     Number       Type             X           Y           Z
 ---------------------------------------------------------------------
      1          8           0       -3.913991   -0.337383   -1.567745
      2         16           0       -2.865421   -0.373570   -0.550404
      3          7           0       -1.823730    0.902240   -0.879775
      4          6           0       -0.469641    0.938720   -0.536770
      5          7           0        0.067877    2.108704   -0.238425
      6          8           0        1.429308    1.833733   -0.040115
      7          6           0        1.653656    0.507476   -0.207996
      8          6           0        3.019379    0.026230   -0.030572
      9          6           0        4.057512    0.916758    0.289568
     10          6           0        5.357037    0.443613    0.456183
     11          6           0        5.635574   -0.916487    0.306066
     12          6           0        4.606327   -1.806795   -0.012354
     13          6           0        3.305167   -1.341168   -0.179896
     14          6           0        0.480752   -0.115407   -0.532147
     15          7           0       -3.586296    0.089600    0.892569
     16          6           0       -4.892544   -0.547206    1.150756
     17          6           0       -2.681743    0.074271    2.052448
     18          8           0       -2.027594   -1.571070   -0.423884
     19          1           0       -2.295086    1.807797   -0.880452
     20          1           0        3.839394    1.971804    0.405274
     21          1           0        6.152914    1.137745    0.703473
     22          1           0        6.648602   -1.281330    0.436475
     23          1           0        4.817333   -2.864279   -0.129855
     24          1           0        2.508941   -2.035159   -0.425742
     25          1           0        0.299512   -1.154914   -0.735382
     26          1           0       -5.519033   -0.457348    0.265758
     27          1           0       -5.354412   -0.000702    1.974530
     28          1           0       -4.794845   -1.602161    1.432798
     29          1           0       -1.781984    0.648256    1.831492
     30          1           0       -2.404814   -0.941773    2.354623
     31          1           0       -3.205375    0.563106    2.875134
 ---------------------------------------------------------------------

 SCF Done:  E(RHF) =  -1209.53223185     A.U. after   16 cycles
 E2 =    -0.2783736583D+01 EUMP2 =    -0.12123159684282D+04

 The electronic state is 1-A.
 Alpha  occ. eigenvalues --  -92.26047 -20.65469 -20.57545 -20.57030 -15.64026
 Alpha  occ. eigenvalues --  -15.62777 -15.62632 -11.34679 -11.33803 -11.28896
 Alpha  occ. eigenvalues --  -11.28594 -11.27295 -11.26444 -11.26147 -11.26128
 Alpha  occ. eigenvalues --  -11.25776 -11.25672 -11.24610  -9.22468  -6.91022
 Alpha  occ. eigenvalues --   -6.90991  -6.90933  -1.49601  -1.48438  -1.35523
 Alpha  occ. eigenvalues --   -1.28856  -1.26291  -1.18121  -1.14576  -1.09663
 Alpha  occ. eigenvalues --   -1.03552  -1.02793  -0.99240  -0.96587  -0.88397
 Alpha  occ. eigenvalues --   -0.86601  -0.84328  -0.81413  -0.80120  -0.75006
 Alpha  occ. eigenvalues --   -0.74405  -0.71214  -0.69626  -0.68003  -0.66605
 Alpha  occ. eigenvalues --   -0.66089  -0.65312  -0.64366  -0.63321  -0.62021
 Alpha  occ. eigenvalues --   -0.60839  -0.59864  -0.59620  -0.57973  -0.56956
 Alpha  occ. eigenvalues --   -0.55543  -0.54362  -0.52444  -0.52349  -0.51918
 Alpha  occ. eigenvalues --   -0.51150  -0.50864  -0.49620  -0.48556  -0.48205
 Alpha  occ. eigenvalues --   -0.42260  -0.40828  -0.39030  -0.35324  -0.32118
 Alpha virt. eigenvalues --    0.02962   0.03166   0.03965   0.04544   0.04903
 Alpha virt. eigenvalues --    0.04997   0.05741   0.05892   0.06442   0.07011
 Alpha virt. eigenvalues --    0.07163   0.07535   0.08460   0.09529   0.09762

 Mulliken charges:
               1
     1  O   -1.099928
     2  S    3.235034
     3  N   -0.878731
     4  C   -0.067276
     5  N   -0.328337
     6  O   -1.094942
     7  C    0.014791
     8  C    1.393023
     9  C    0.339528
    10  C    0.236476
    11  C    0.547723
    12  C    0.076343
    13  C    0.599248
    14  C    1.920065
    15  N   -1.282982
    16  C    0.737401
    17  C    0.818103
    18  O   -1.170970
    19  H   -0.077000
    20  H   -0.660783
    21  H   -0.443140
    22  H   -0.436357
    23  H   -0.487002
    24  H   -0.577948
    25  H   -0.629249
    26  H   -0.102035
    27  H   -0.142495
    28  H   -0.027332
    29  H   -0.218972
    30  H   -0.026917
    31  H   -0.165339
 Sum of Mulliken charges =  -0.00000

 Dipole moment (field-independent basis, Debye):
    X=              1.2166    Y=             -0.8074    Z=              3.9390  Tot=              4.2010
 Quadrupole moment (field-independent basis, Debye-Ang):
   XX=            -92.0875   YY=           -116.9859   ZZ=           -116.8484
   XY=             -7.8026   XZ=            -13.8176   YZ=             -1.2674

 Normal termination of Gaussian 16 at Mon Sep 14 20:02:48 2020.
