 Gaussian 16, Revision B.01,

 ----------------------------------------------------------------------
 #p b3lyp/6-31G(d) opt freq NoSymm scf=(MaxCycle=2000,NoVarAcc,NoIncFoc
 k) scrf=(iefpcm,read,solvent=water)
 ----------------------------------------------------------------------

 -------------------
 SM43_m0.n.1.pdb.xyz
 -------------------
 Symbolic Z-matrix:
 Charge =  0 Multiplicity = 1

 SCF Done:  E(RB3LYP) =  -1215.00788165     A.U. after   13 cycles
 SCF Done:  E(RB3LYP) =  -1215.00788885     A.U. after    9 cycles
 SCF Done:  E(RB3LYP) =  -1215.00790272     A.U. after    8 cycles
 SCF Done:  E(RB3LYP) =  -1215.00790398     A.U. after    8 cycles
 SCF Done:  E(RB3LYP) =  -1215.00790572     A.U. after    8 cycles
 SCF Done:  E(RB3LYP) =  -1215.00790685     A.U. after    7 cycles
 SCF Done:  E(RB3LYP) =  -1215.00790772     A.U. after    7 cycles
 SCF Done:  E(RB3LYP) =  -1215.00790810     A.U. after    8 cycles
 SCF Done:  E(RB3LYP) =  -1215.00790801     A.U. after    7 cycles
 SCF Done:  E(RB3LYP) =  -1215.00790786     A.U. after    7 cycles
 SCF Done:  E(RB3LYP) =  -1215.00790765     A.U. after    7 cycles
 SCF Done:  E(RB3LYP) =  -1215.00790785     A.U. after    8 cycles
 SCF Done:  E(RB3LYP) =  -1215.00790788     A.U. after    7 cycles
 SCF Done:  E(RB3LYP) =  -1215.00790788     A.U. after    6 cycles
 Optimization completed.
    -- Stationary point found.
 Normal termination of Gaussian 16 at Wed Sep 23 01:37:49 2020.

 --------------------------------------------------------------------
 #P Geom=AllCheck Guess=TCheck SCRF=Check GenChk RB3LYP/6-31G(d) Freq
 --------------------------------------------------------------------

 Structure from the checkpoint file:  "SM43_m0.n.1.pdb.xyz.mst.n.w.chk"
 -------------------
 SM43_m0.n.1.pdb.xyz
 -------------------
 Charge =  0 Multiplicity = 1

 SCF Done:  E(RB3LYP) =  -1215.00790788     A.U. after    1 cycles

  Exact polarizability: 323.840   6.675 216.611  -6.436 -18.132 115.571
 Approx polarizability: 335.226  11.207 267.630  -7.868 -27.799 137.226

                      1                      2                      3
                      A                      A                      A
 Frequencies --     16.9826                25.1544                36.7314
 Red. masses --      5.1408                 4.1832                 5.7097
 Frc consts  --      0.0009                 0.0016                 0.0045
 IR Inten    --      2.6613                 3.4868                 7.1178

                      4                      5                      6
                      A                      A                      A
 Frequencies --     63.7312                85.0638               100.6381
 Red. masses --      3.3101                 4.8120                 4.6988
 Frc consts  --      0.0079                 0.0205                 0.0280
 IR Inten    --      0.4917                 4.9654                 4.4491

                      7                      8                      9
                      A                      A                      A
 Frequencies --    121.3932               146.4336               179.7005
 Red. masses --      5.6880                 1.4670                 1.7307
 Frc consts  --      0.0494                 0.0185                 0.0329
 IR Inten    --      2.8038                 2.1798                 1.0756

                     10                     11                     12
                      A                      A                      A
 Frequencies --    205.5333               223.5590               252.1674
 Red. masses --      1.2335                 5.1144                 5.5099
 Frc consts  --      0.0307                 0.1506                 0.2064
 IR Inten    --      1.7115                 0.1569                 4.3949

                     13                     14                     15
                      A                      A                      A
 Frequencies --    270.5160               309.1968               328.4312
 Red. masses --      4.0588                 8.1149                 4.7607
 Frc consts  --      0.1750                 0.4571                 0.3026
 IR Inten    --      1.5456                 9.0115                13.4324

                     16                     17                     18
                      A                      A                      A
 Frequencies --    355.7736               381.1369               391.0642
 Red. masses --      2.9977                 7.2039                 8.4689
 Frc consts  --      0.2236                 0.6166                 0.7631
 IR Inten    --      3.2526                11.9756                10.9231

                     19                     20                     21
                      A                      A                      A
 Frequencies --    410.9197               441.2507               471.0749
 Red. masses --      2.9553                 1.7055                 3.4944
 Frc consts  --      0.2940                 0.1956                 0.4569
 IR Inten    --      0.0584                89.2599                43.8184

                     22                     23                     24
                      A                      A                      A
 Frequencies --    477.9474               490.5350               500.2792
 Red. masses --      5.4544                 5.6219                 4.1776
 Frc consts  --      0.7341                 0.7970                 0.6160
 IR Inten    --     31.1775                53.0874                 8.3601

                     25                     26                     27
                      A                      A                      A
 Frequencies --    556.1185               630.6925               659.4420
 Red. masses --     10.8007                 6.4466                 7.6913
 Frc consts  --      1.9681                 1.5108                 1.9706
 IR Inten    --    215.2031                 0.0511                 4.7422

                     28                     29                     30
                      A                      A                      A
 Frequencies --    674.0469               692.3583               701.9262
 Red. masses --      5.9981                 5.2407                 1.8518
 Frc consts  --      1.6056                 1.4801                 0.5376
 IR Inten    --    126.5378                25.7914                66.7403

                     31                     32                     33
                      A                      A                      A
 Frequencies --    708.0177               776.0445               790.1082
 Red. masses --      3.7086                 1.4002                 3.6821
 Frc consts  --      1.0953                 0.4968                 1.3543
 IR Inten    --     48.4545               131.6645                99.4532

                     34                     35                     36
                      A                      A                      A
 Frequencies --    804.4689               827.8218               864.6259
 Red. masses --      2.4957                 5.7253                 1.2549
 Frc consts  --      0.9516                 2.3117                 0.5527
 IR Inten    --     13.2240               278.8792                 0.0253

                     37                     38                     39
                      A                      A                      A
 Frequencies --    943.4919               953.4732               961.2368
 Red. masses --      1.3928                 3.1382                 9.0025
 Frc consts  --      0.7305                 1.6809                 4.9009
 IR Inten    --      3.3743               138.9004                25.7541

                     40                     41                     42
                      A                      A                      A
 Frequencies --    968.5467               985.3235              1015.1707
 Red. masses --     10.0517                 1.3511                 1.2690
 Frc consts  --      5.5556                 0.7729                 0.7705
 IR Inten    --     72.2659                 0.0106                 0.0423

                     43                     44                     45
                      A                      A                      A
 Frequencies --   1017.1194              1050.5749              1065.6481
 Red. masses --      6.1276                 2.5136                 2.5577
 Frc consts  --      3.7349                 1.6346                 1.7113
 IR Inten    --      0.9575                 5.1564                28.0260

                     46                     47                     48
                      A                      A                      A
 Frequencies --   1070.3552              1089.5039              1111.0132
 Red. masses --      1.5578                 3.4241                 1.6652
 Frc consts  --      1.0515                 2.3947                 1.2110
 IR Inten    --     23.4760                44.2141                45.6064

                     49                     50                     51
                      A                      A                      A
 Frequencies --   1114.9189              1132.5161              1173.5223
 Red. masses --      9.3224                 1.2191                 1.3708
 Frc consts  --      6.8276                 0.9213                 1.1123
 IR Inten    --    287.8270                 3.5035                 0.6372

                     52                     53                     54
                      A                      A                      A
 Frequencies --   1191.0939              1207.2175              1219.6636
 Red. masses --      1.0924                 1.1802                 1.8759
 Frc consts  --      0.9131                 1.0134                 1.6442
 IR Inten    --      0.0645                16.7061                33.8958

                     55                     56                     57
                      A                      A                      A
 Frequencies --   1228.6996              1285.9260              1291.9795
 Red. masses --      3.7724                 1.9963                 4.6652
 Frc consts  --      3.3555                 1.9450                 4.5881
 IR Inten    --     33.3466                30.6413                39.5447

                     58                     59                     60
                      A                      A                      A
 Frequencies --   1311.8679              1347.7195              1369.7473
 Red. masses --      6.8583                 2.9587                 2.1131
 Frc consts  --      6.9542                 3.1663                 2.3359
 IR Inten    --    269.7401                27.9076                 0.6103

                     61                     62                     63
                      A                      A                      A
 Frequencies --   1391.7387              1454.1740              1468.5680
 Red. masses --      1.9390                 1.1425                 1.1527
 Frc consts  --      2.2128                 1.4235                 1.4647
 IR Inten    --     64.0840                 0.2643                 8.2731

                     64                     65                     66
                      A                      A                      A
 Frequencies --   1492.9392              1502.9668              1507.8714
 Red. masses --      2.4170                 1.0474                 1.0841
 Frc consts  --      3.1740                 1.3940                 1.4523
 IR Inten    --     67.3999                10.4862                 6.6836

                     67                     68                     69
                      A                      A                      A
 Frequencies --   1513.7064              1514.4058              1521.8228
 Red. masses --      3.2059                 1.0887                 1.1660
 Frc consts  --      4.3280                 1.4711                 1.5910
 IR Inten    --    542.2741                18.3600                58.5993

                     70                     71                     72
                      A                      A                      A
 Frequencies --   1523.0565              1557.8942              1630.2558
 Red. masses --      2.0308                 3.4624                 5.4439
 Frc consts  --      2.7756                 4.9511                 8.5245
 IR Inten    --    167.7551                22.2115                99.8865

                     73                     74                     75
                      A                      A                      A
 Frequencies --   1653.7910              1667.2615              3061.9826
 Red. masses --      6.3949                 6.0486                 1.0420
 Frc consts  --     10.3049                 9.9063                 5.7558
 IR Inten    --    107.4608                72.0009                49.4800

                     76                     77                     78
                      A                      A                      A
 Frequencies --   3072.7048              3147.0263              3149.6363
 Red. masses --      1.0394                 1.0953                 1.1016
 Frc consts  --      5.7822                 6.3909                 6.4387
 IR Inten    --     49.1554                42.9732                12.0548

                     79                     80                     81
                      A                      A                      A
 Frequencies --   3193.4932              3205.9525              3208.7065
 Red. masses --      1.1037                 1.1018                 1.0858
 Frc consts  --      6.6317                 6.6719                 6.5868
 IR Inten    --      8.2221                 6.2281                 1.7971

                     82                     83                     84
                      A                      A                      A
 Frequencies --   3214.7841              3222.7346              3231.5933
 Red. masses --      1.0885                 1.0926                 1.0960
 Frc consts  --      6.6279                 6.6858                 6.7436
 IR Inten    --      4.6897                39.1954                41.2588

                     85                     86                     87
                      A                      A                      A
 Frequencies --   3239.7081              3310.5354              3560.1901
 Red. masses --      1.0948                 1.0992                 1.0774
 Frc consts  --      6.7701                 7.0976                 8.0459
 IR Inten    --     12.0260                 1.9585               215.6796

 - Thermochemistry -
 -------------------
 Temperature   298.150 Kelvin.  Pressure   1.00000 Atm.
 Atom     1 has atomic number  8 and mass  15.99491

 Molecular mass:   267.06776 amu.
 Principal axes and moments of inertia in atomic units:
                           1         2         3
     Eigenvalues --  1463.37993********************
           X            0.99992  -0.00875  -0.00870
           Y            0.00858   0.99977  -0.01955
           Z            0.00887   0.01947   0.99977
 This molecule is an asymmetric top.
 Rotational symmetry number  1.
 Warning -- assumption of classical behavior for rotation
           may cause significant error
 Rotational temperatures (Kelvin)      0.05919     0.00736     0.00701
 Rotational constants (GHZ):           1.23327     0.15327     0.14600
 Zero-point vibrational energy     629814.2 (Joules/Mol)
                                  150.52921 (Kcal/Mol)
 Warning -- explicit consideration of  25 degrees of freedom as
           vibrations may cause significant error
 Vibrational temperatures:     24.43    36.19    52.85    91.69   122.39
          (Kelvin)            144.80   174.66   210.69   258.55   295.72
                              321.65   362.81   389.21   444.87   472.54
                              511.88   548.37   562.65   591.22   634.86
                              677.77   687.66   705.77   719.79   800.13
                              907.43   948.79   969.80   996.15  1009.92
                             1018.68  1116.56  1136.79  1157.45  1191.05
                             1244.00  1357.47  1371.84  1383.01  1393.52
                             1417.66  1460.60  1463.41  1511.54  1533.23
                             1540.00  1567.55  1598.50  1604.12  1629.44
                             1688.44  1713.72  1736.92  1754.82  1767.82
                             1850.16  1858.87  1887.49  1939.07  1970.76
                             2002.40  2092.23  2112.94  2148.01  2162.43
                             2169.49  2177.89  2178.89  2189.56  2191.34
                             2241.46  2345.57  2379.44  2398.82  4405.51
                             4420.94  4527.87  4531.62  4594.72  4612.65
                             4616.61  4625.36  4636.80  4649.54  4661.22
                             4763.12  5122.32

 Zero-point correction=                           0.239884 (Hartree/Particle)
 Thermal correction to Energy=                    0.256901
 Thermal correction to Enthalpy=                  0.257845
 Thermal correction to Gibbs Free Energy=         0.192528
 Sum of electronic and zero-point Energies=          -1214.768024
 Sum of electronic and thermal Energies=             -1214.751007
 Sum of electronic and thermal Enthalpies=           -1214.750063
 Sum of electronic and thermal Free Energies=        -1214.815380

                     E (Thermal)             CV                S
                      KCal/Mol        Cal/Mol-Kelvin    Cal/Mol-Kelvin
 Total                  161.208             63.475            137.470
 Electronic               0.000              0.000              0.000
 Translational            0.889              2.981             42.646
 Rotational               0.889              2.981             33.721
 Vibrational            159.430             57.513             61.103
 Vibration     1          0.593              1.986              6.959
 Vibration     2          0.593              1.985              6.179
 Vibration     3          0.594              1.982              5.428
 Vibration     4          0.597              1.972              4.338
 Vibration     5          0.601              1.960              3.771
 Vibration     6          0.604              1.949              3.442
 Vibration     7          0.609              1.931              3.078
 Vibration     8          0.617              1.907              2.718
 Vibration     9          0.629              1.867              2.332
 Vibration    10          0.640              1.832              2.083
 Vibration    11          0.649              1.805              1.930
 Vibration    12          0.664              1.759              1.715
 Vibration    13          0.674              1.728              1.593
 Vibration    14          0.699              1.656              1.367
 Vibration    15          0.712              1.619              1.268
 Vibration    16          0.731              1.563              1.141
 Vibration    17          0.751              1.510              1.035
 Vibration    18          0.759              1.489              0.996
 Vibration    19          0.775              1.447              0.923
 Vibration    20          0.801              1.380              0.823
 Vibration    21          0.828              1.314              0.735
 Vibration    22          0.834              1.299              0.716
 Vibration    23          0.846              1.271              0.682
 Vibration    24          0.856              1.249              0.657
 Vibration    25          0.912              1.126              0.532

                           ! Non-Optimized Parameters !
 Normal termination of Gaussian 16 at Wed Sep 23 01:45:35 2020.

 ----------------------------------------------------------------------
 #p b3lyp/6-31G(d) scrf=(iefpcm,read,solvent=water) geom=allcheck guess
 =read
 ----------------------------------------------------------------------

 Structure from the checkpoint file:  "SM43_m0.n.1.pdb.xyz.mst.n.w.chk"
 -------------------
 SM43_m0.n.1.pdb.xyz
 -------------------
 Charge =  0 Multiplicity = 1

 SCF Done:  E(RB3LYP) =  -1215.00790792     A.U. after    4 cycles
 Normal termination of Gaussian 16 at Wed Sep 23 01:46:00 2020.

 -----------------------------
 #p B3LYP/6-31G* geom=allcheck
 -----------------------------

 Structure from the checkpoint file:  "SM43_m0.n.1.pdb.xyz.mst.n.w.chk"
 -------------------
 SM43_m0.n.1.pdb.xyz
 -------------------
 Charge =  0 Multiplicity = 1

 SCF Done:  E(RB3LYP) =  -1214.98645857     A.U. after   15 cycles
 Normal termination of Gaussian 16 at Wed Sep 23 01:46:36 2020.
 Gaussian 16:  ES64L-G16RevB.01 20-Dec-2017

 ----------------------------------------------------------------------
 #p mp2/aug-cc-pVDZ scf=(MaxCycle=2000,NoVarAcc,NoIncFock) maxdisk=120G
 B geom=allcheck
 ----------------------------------------------------------------------

 Structure from the checkpoint file:  "SM43_m0.n.1.pdb.xyz.mst.n.w.chk"
 -------------------
 SM43_m0.n.1.pdb.xyz
 -------------------
 Charge =  0 Multiplicity = 1

                         Standard orientation:
 ---------------------------------------------------------------------
 Center     Atomic      Atomic             Coordinates (Angstroms)
 Number     Number       Type             X           Y           Z
 ---------------------------------------------------------------------
      1          8           0       -2.704435    0.044088   -1.816630
      2         16           0       -3.077971   -0.529860   -0.525221
      3          7           0       -1.674156   -0.965130    0.346501
      4          6           0       -0.426377   -0.370864    0.176202
      5          7           0       -0.291847    0.919500   -0.066104
      6          8           0        1.095285    1.126299   -0.134703
      7          6           0        1.742234   -0.044055    0.087820
      8          6           0        3.200692   -0.020962    0.062216
      9          6           0        3.890865    1.174629   -0.193324
     10          6           0        5.282950    1.188039   -0.215044
     11          6           0        6.000957    0.012839    0.017167
     12          6           0        5.319083   -1.180247    0.271943
     13          6           0        3.927296   -1.200588    0.295163
     14          6           0        0.824429   -1.036100    0.289607
     15          7           0       -3.875303    0.647995    0.323990
     16          6           0       -4.257045    0.291465    1.698485
     17          6           0       -3.438121    2.040392    0.144635
     18          8           0       -3.884610   -1.748179   -0.448358
     19          1           0       -1.654464   -1.969519    0.512518
     20          1           0        3.332088    2.085034   -0.373451
     21          1           0        5.807209    2.116642   -0.413448
     22          1           0        7.085354    0.025653   -0.000164
     23          1           0        5.872243   -2.095474    0.452857
     24          1           0        3.402177   -2.128617    0.493391
     25          1           0        0.995880   -2.082183    0.482413
     26          1           0       -4.655324   -0.721946    1.713681
     27          1           0       -5.040855    0.983904    2.009716
     28          1           0       -3.410882    0.369060    2.390905
     29          1           0       -3.239399    2.222724   -0.909041
     30          1           0       -2.545753    2.273774    0.733461
     31          1           0       -4.263292    2.677192    0.468306
 ---------------------------------------------------------------------

 SCF Done:  E(RHF) =  -1209.53053111     A.U. after   17 cycles
 E2 =    -0.2783400609D+01 EUMP2 =    -0.12123139317151D+04

 The electronic state is 1-A.
 Alpha  occ. eigenvalues --  -92.25201 -20.65723 -20.56420 -20.56299 -15.63582
 Alpha  occ. eigenvalues --  -15.62417 -15.61625 -11.34603 -11.34488 -11.27951
 Alpha  occ. eigenvalues --  -11.27721 -11.26976 -11.26861 -11.26547 -11.26487
 Alpha  occ. eigenvalues --  -11.26207 -11.26030 -11.25582  -9.21579  -6.90146
 Alpha  occ. eigenvalues --   -6.90090  -6.90050  -1.49725  -1.47555  -1.34762
 Alpha  occ. eigenvalues --   -1.28075  -1.25449  -1.18531  -1.14467  -1.10089
 Alpha  occ. eigenvalues --   -1.03975  -1.03263  -0.98039  -0.95944  -0.88818
 Alpha  occ. eigenvalues --   -0.86998  -0.84669  -0.81830  -0.78017  -0.75647
 Alpha  occ. eigenvalues --   -0.72737  -0.71331  -0.69834  -0.67298  -0.66891
 Alpha  occ. eigenvalues --   -0.66006  -0.65478  -0.64033  -0.63366  -0.61364
 Alpha  occ. eigenvalues --   -0.61107  -0.60652  -0.58244  -0.57187  -0.56942
 Alpha  occ. eigenvalues --   -0.54810  -0.53916  -0.52998  -0.52542  -0.51435
 Alpha  occ. eigenvalues --   -0.51386  -0.49566  -0.48921  -0.47970  -0.47037
 Alpha  occ. eigenvalues --   -0.41474  -0.41262  -0.38806  -0.35735  -0.32587
 Alpha virt. eigenvalues --    0.02520   0.03173   0.03626   0.04181   0.04700
 Alpha virt. eigenvalues --    0.05238   0.05575   0.05707   0.06307   0.07125
 Alpha virt. eigenvalues --    0.07665   0.08125   0.08833   0.09193   0.09536

 Mulliken charges:
               1
     1  O   -1.118189
     2  S    3.018166
     3  N   -0.903841
     4  C   -0.299665
     5  N   -0.188959
     6  O   -1.093303
     7  C    0.003723
     8  C    1.493116
     9  C    0.395466
    10  C    0.182322
    11  C    0.527828
    12  C    0.058126
    13  C    0.606770
    14  C    1.817660
    15  N   -1.152474
    16  C    0.725500
    17  C    0.871756
    18  O   -1.087357
    19  H   -0.028174
    20  H   -0.656778
    21  H   -0.441039
    22  H   -0.433278
    23  H   -0.483595
    24  H   -0.582059
    25  H   -0.584596
    26  H   -0.132706
    27  H   -0.166129
    28  H   -0.018449
    29  H   -0.137518
    30  H   -0.000949
    31  H   -0.191377
 Sum of Mulliken charges =  -0.00000

 Dipole moment (field-independent basis, Debye):
    X=              4.1852    Y=             -0.4581    Z=              4.4282  Tot=              6.1102
 Quadrupole moment (field-independent basis, Debye-Ang):
   XX=            -99.5136   YY=           -105.8534   ZZ=           -121.0836
   XY=            -12.0019   XZ=            -14.1990   YZ=             -3.4384

 Normal termination of Gaussian 16 at Wed Sep 23 02:13:06 2020.
