 Gaussian 16, Revision B.01,

 ----------------------------------------------------------------------
 #p b3lyp/6-31G(d) opt freq NoSymm scf=(MaxCycle=2000,NoVarAcc,NoIncFoc
 k) scrf=(iefpcm,read,solvent=water)
 ----------------------------------------------------------------------

 -------------------
 SM43_m1.a.8.pdb.xyz
 -------------------
 Symbolic Z-matrix:
 Charge = -1 Multiplicity = 1

 SCF Done:  E(RB3LYP) =  -1214.53780223     A.U. after   13 cycles
 SCF Done:  E(RB3LYP) =  -1214.53770804     A.U. after    9 cycles
 SCF Done:  E(RB3LYP) =  -1214.53771871     A.U. after    9 cycles
 SCF Done:  E(RB3LYP) =  -1214.53779884     A.U. after    9 cycles
 SCF Done:  E(RB3LYP) =  -1214.53780352     A.U. after    8 cycles
 SCF Done:  E(RB3LYP) =  -1214.53773966     A.U. after    9 cycles
 SCF Done:  E(RB3LYP) =  -1214.53773900     A.U. after    8 cycles
 SCF Done:  E(RB3LYP) =  -1214.53779956     A.U. after    9 cycles
 SCF Done:  E(RB3LYP) =  -1214.53780327     A.U. after    8 cycles
 SCF Done:  E(RB3LYP) =  -1214.53780350     A.U. after    7 cycles
 SCF Done:  E(RB3LYP) =  -1214.53779912     A.U. after    9 cycles
 SCF Done:  E(RB3LYP) =  -1214.53780298     A.U. after    8 cycles
 SCF Done:  E(RB3LYP) =  -1214.53773935     A.U. after    9 cycles
 SCF Done:  E(RB3LYP) =  -1214.53779911     A.U. after    9 cycles
 SCF Done:  E(RB3LYP) =  -1214.53780296     A.U. after    8 cycles
 SCF Done:  E(RB3LYP) =  -1214.53773931     A.U. after    9 cycles
 Optimization completed.
    -- Stationary point found.
 Normal termination of Gaussian 16 at Thu Sep 24 07:56:28 2020.

 --------------------------------------------------------------------
 #P Geom=AllCheck Guess=TCheck SCRF=Check GenChk RB3LYP/6-31G(d) Freq
 --------------------------------------------------------------------

 Structure from the checkpoint file:  "SM43_m1.a.8.pdb.xyz.mst.a.w.chk"
 -------------------
 SM43_m1.a.8.pdb.xyz
 -------------------
 Charge = -1 Multiplicity = 1

 SCF Done:  E(RB3LYP) =  -1214.53773931     A.U. after    1 cycles

  Exact polarizability: 338.265  15.309 209.166  11.300 -31.820 131.906
 Approx polarizability: 347.329  22.247 259.791  12.808 -47.594 155.310

                      1                      2                      3
                      A                      A                      A
 Frequencies --     24.1977                34.5590                46.1232
 Red. masses --      5.7533                 4.3204                 4.2457
 Frc consts  --      0.0020                 0.0030                 0.0053
 IR Inten    --      5.0378                 2.8535                 2.2265

                      4                      5                      6
                      A                      A                      A
 Frequencies --     68.8675                88.7695                99.0709
 Red. masses --      4.7939                 4.5413                 4.3869
 Frc consts  --      0.0134                 0.0211                 0.0254
 IR Inten    --      0.2890                 2.5363                 1.7593

                      7                      8                      9
                      A                      A                      A
 Frequencies --    145.7655               177.1687               211.7777
 Red. masses --      8.4170                 2.5899                 1.5572
 Frc consts  --      0.1054                 0.0479                 0.0411
 IR Inten    --      0.6215                 4.3678                 0.0884

                     10                     11                     12
                      A                      A                      A
 Frequencies --    226.8120               242.6469               259.5203
 Red. masses --      1.0577                 4.5445                 4.4176
 Frc consts  --      0.0321                 0.1576                 0.1753
 IR Inten    --      0.8563                 7.4192                12.4874

                     13                     14                     15
                      A                      A                      A
 Frequencies --    267.2277               320.2989               336.2826
 Red. masses --      3.4281                 8.7306                 3.3608
 Frc consts  --      0.1442                 0.5277                 0.2239
 IR Inten    --      1.3413                16.9727                 9.0906

                     16                     17                     18
                      A                      A                      A
 Frequencies --    355.5293               392.3221               406.1627
 Red. masses --      4.8693                 8.0859                 7.3287
 Frc consts  --      0.3626                 0.7333                 0.7123
 IR Inten    --      7.4008                 4.6422                 3.5176

                     19                     20                     21
                      A                      A                      A
 Frequencies --    414.2810               468.7211               475.4607
 Red. masses --      3.0090                 5.9980                 6.2786
 Frc consts  --      0.3043                 0.7764                 0.8363
 IR Inten    --      0.0455                36.2974                 3.9589

                     22                     23                     24
                      A                      A                      A
 Frequencies --    490.6333               497.0694               571.9837
 Red. masses --      4.6891                 4.2733                 9.8210
 Frc consts  --      0.6650                 0.6221                 1.8931
 IR Inten    --     38.9736                 0.2351               154.4900

                     25                     26                     27
                      A                      A                      A
 Frequencies --    631.7058               643.0142               654.5191
 Red. masses --      6.4556                 7.8589                 7.3764
 Frc consts  --      1.5178                 1.9145                 1.8618
 IR Inten    --      0.2270               294.9872                 8.2765

                     28                     29                     30
                      A                      A                      A
 Frequencies --    689.7065               707.3520               712.4249
 Red. masses --      6.7655                 1.8631                 4.3174
 Frc consts  --      1.8962                 0.5492                 1.2911
 IR Inten    --     12.2013                58.9183                58.2324

                     31                     32                     33
                      A                      A                      A
 Frequencies --    723.3352               780.8754               802.9352
 Red. masses --      7.6866                 1.4544                 1.9153
 Frc consts  --      2.3695                 0.5225                 0.7275
 IR Inten    --    188.4153               101.1270                 6.6994

                     34                     35                     36
                      A                      A                      A
 Frequencies --    865.4841               887.5837               917.7345
 Red. masses --      1.2521                12.1033                13.0501
 Frc consts  --      0.5526                 5.6179                 6.4759
 IR Inten    --      0.0849               198.2348                58.3526

                     37                     38                     39
                      A                      A                      A
 Frequencies --    939.2366               943.4856               957.7326
 Red. masses --      3.2201                 1.3841                 8.4423
 Frc consts  --      1.6737                 0.7259                 4.5624
 IR Inten    --    130.6457                 3.5397                31.2514

                     40                     41                     42
                      A                      A                      A
 Frequencies --    984.1557              1013.9150              1016.3425
 Red. masses --      1.3495                 1.2587                 6.0970
 Frc consts  --      0.7701                 0.7624                 3.7106
 IR Inten    --      0.0412                 0.1023                 0.2161

                     43                     44                     45
                      A                      A                      A
 Frequencies --   1033.7819              1055.5688              1062.9497
 Red. masses --      2.1972                 2.4705                 1.4981
 Frc consts  --      1.3835                 1.6219                 0.9973
 IR Inten    --     15.3779                14.4474                12.6746

                     46                     47                     48
                      A                      A                      A
 Frequencies --   1078.8544              1096.7683              1109.2460
 Red. masses --      6.3681                 5.2399                 1.5815
 Frc consts  --      4.3670                 3.7136                 1.1465
 IR Inten    --    442.0756               241.1346                14.1343

                     49                     50                     51
                      A                      A                      A
 Frequencies --   1127.1884              1174.2228              1188.8758
 Red. masses --      1.2205                 1.3995                 1.0987
 Frc consts  --      0.9136                 1.1369                 0.9150
 IR Inten    --      8.1472                 2.7944                 0.5677

                     52                     53                     54
                      A                      A                      A
 Frequencies --   1203.6394              1217.2736              1229.2408
 Red. masses --      1.1893                 4.9334                 2.3775
 Frc consts  --      1.0152                 4.3070                 2.1166
 IR Inten    --     24.8217                43.4494                72.2688

                     55                     56                     57
                      A                      A                      A
 Frequencies --   1235.7669              1270.4005              1294.7639
 Red. masses --      9.4813                 1.9468                 4.8762
 Frc consts  --      8.5309                 1.8512                 4.8163
 IR Inten    --    459.1039                15.8942                 4.6933

                     58                     59                     60
                      A                      A                      A
 Frequencies --   1348.2890              1368.2471              1431.0379
 Red. masses --      3.3194                 1.9925                 6.6273
 Frc consts  --      3.5553                 2.1978                 7.9963
 IR Inten    --     34.7589                 2.2088               291.1110

                     61                     62                     63
                      A                      A                      A
 Frequencies --   1444.2909              1459.2033              1484.0403
 Red. masses --      1.1497                 1.1862                 4.8328
 Frc consts  --      1.4130                 1.4881                 6.2711
 IR Inten    --      2.4965                13.9315               523.2855

                     64                     65                     66
                      A                      A                      A
 Frequencies --   1497.9575              1503.6676              1511.2473
 Red. masses --      2.4881                 1.0560                 1.0538
 Frc consts  --      3.2894                 1.4068                 1.4180
 IR Inten    --    211.8784                22.9492                34.6726

                     67                     68                     69
                      A                      A                      A
 Frequencies --   1515.0379              1523.4185              1541.5917
 Red. masses --      1.0898                 1.0515                 2.3532
 Frc consts  --      1.4738                 1.4378                 3.2949
 IR Inten    --     13.0093                15.3681               154.7416

                     70                     71                     72
                      A                      A                      A
 Frequencies --   1627.2861              1651.7184              1666.8809
 Red. masses --      5.7124                 6.8555                 6.1764
 Frc consts  --      8.9125                11.0195                10.1111
 IR Inten    --    107.9643               109.0255                32.7021

                     73                     74                     75
                      A                      A                      A
 Frequencies --   3025.3991              3045.9253              3111.6104
 Red. masses --      1.0498                 1.0425                 1.0972
 Frc consts  --      5.6612                 5.6985                 6.2588
 IR Inten    --     79.7699                77.4435                89.1569

                     76                     77                     78
                      A                      A                      A
 Frequencies --   3114.9735              3176.3657              3192.5866
 Red. masses --      1.0898                 1.1003                 1.0980
 Frc consts  --      6.2300                 6.5405                 6.5939
 IR Inten    --     24.9137                16.6197                11.9640

                     79                     80                     81
                      A                      A                      A
 Frequencies --   3205.1463              3211.7669              3219.4832
 Red. masses --      1.0857                 1.0885                 1.0926
 Frc consts  --      6.5713                 6.6154                 6.6722
 IR Inten    --      1.8164                 4.7433                45.3863

                     82                     83                     84
                      A                      A                      A
 Frequencies --   3229.0434              3237.8929              3301.6864
 Red. masses --      1.0961                 1.0943                 1.0983
 Frc consts  --      6.7334                 6.7594                 7.0542
 IR Inten    --     46.6391                12.4578                 1.0619

 - Thermochemistry -
 -------------------
 Temperature   298.150 Kelvin.  Pressure   1.00000 Atm.
 Atom     1 has atomic number  8 and mass  15.99491

 Molecular mass:   266.05994 amu.
 Principal axes and moments of inertia in atomic units:
                           1         2         3
     Eigenvalues --  1520.46488********************
           X            0.99934  -0.00941  -0.03503
           Y            0.01351   0.99285   0.11863
           Z            0.03367  -0.11903   0.99232
 This molecule is an asymmetric top.
 Rotational symmetry number  1.
 Warning -- assumption of classical behavior for rotation
           may cause significant error
 Rotational temperatures (Kelvin)      0.05697     0.00747     0.00724
 Rotational constants (GHZ):           1.18697     0.15555     0.15080
 Zero-point vibrational energy     595244.6 (Joules/Mol)
                                  142.26687 (Kcal/Mol)
 Warning -- explicit consideration of  24 degrees of freedom as
           vibrations may cause significant error
 Vibrational temperatures:     34.82    49.72    66.36    99.09   127.72
          (Kelvin)            142.54   209.72   254.91   304.70   326.33
                              349.11   373.39   384.48   460.84   483.84
                              511.53   564.46   584.38   596.06   674.39
                              684.08   705.91   715.17   822.96   908.88
                              925.15   941.71   992.33  1017.72  1025.02
                             1040.72  1123.51  1155.24  1245.24  1277.03
                             1320.42  1351.35  1357.47  1377.96  1415.98
                             1458.80  1462.29  1487.38  1518.73  1529.35
                             1552.23  1578.01  1595.96  1621.77  1689.44
                             1710.53  1731.77  1751.39  1768.60  1777.99
                             1827.82  1862.88  1939.89  1968.60  2058.94
                             2078.01  2099.47  2135.20  2155.23  2163.44
                             2174.35  2179.80  2191.86  2218.01  2341.30
                             2376.45  2398.27  4352.87  4382.41  4476.91
                             4481.75  4570.08  4593.42  4611.49  4621.02
                             4632.12  4645.87  4658.61  4750.39

 Zero-point correction=                           0.226717 (Hartree/Particle)
 Thermal correction to Energy=                    0.243165
 Thermal correction to Enthalpy=                  0.244109
 Thermal correction to Gibbs Free Energy=         0.180836
 Sum of electronic and zero-point Energies=          -1214.311023
 Sum of electronic and thermal Energies=             -1214.294575
 Sum of electronic and thermal Enthalpies=           -1214.293631
 Sum of electronic and thermal Free Energies=        -1214.356903

                     E (Thermal)             CV                S
                      KCal/Mol        Cal/Mol-Kelvin    Cal/Mol-Kelvin
 Total                  152.588             62.010            133.169
 Electronic               0.000              0.000              0.000
 Translational            0.889              2.981             42.635
 Rotational               0.889              2.981             33.712
 Vibrational            150.811             56.048             56.822
 Vibration     1          0.593              1.985              6.256
 Vibration     2          0.594              1.983              5.549
 Vibration     3          0.595              1.979              4.977
 Vibration     4          0.598              1.969              4.185
 Vibration     5          0.602              1.957              3.687
 Vibration     6          0.604              1.950              3.473
 Vibration     7          0.617              1.907              2.727
 Vibration     8          0.628              1.870              2.358
 Vibration     9          0.643              1.823              2.028
 Vibration    10          0.650              1.800              1.904
 Vibration    11          0.659              1.775              1.783
 Vibration    12          0.668              1.747              1.665
 Vibration    13          0.672              1.733              1.614
 Vibration    14          0.706              1.635              1.309
 Vibration    15          0.717              1.603              1.230
 Vibration    16          0.731              1.564              1.142
 Vibration    17          0.760              1.487              0.991
 Vibration    18          0.771              1.457              0.940
 Vibration    19          0.778              1.439              0.912
 Vibration    20          0.826              1.319              0.741
 Vibration    21          0.832              1.304              0.722
 Vibration    22          0.846              1.271              0.682
 Vibration    23          0.853              1.257              0.665
 Vibration    24          0.928              1.092              0.500

 Optimization completed.
    -- Stationary point found.
 Normal termination of Gaussian 16 at Thu Sep 24 08:03:52 2020.

 ----------------------------------------------------------------------
 #p b3lyp/6-31G(d) scrf=(iefpcm,read,solvent=water) geom=allcheck guess
 =read
 ----------------------------------------------------------------------

 Structure from the checkpoint file:  "SM43_m1.a.8.pdb.xyz.mst.a.w.chk"
 -------------------
 SM43_m1.a.8.pdb.xyz
 -------------------
 Charge = -1 Multiplicity = 1

 SCF Done:  E(RB3LYP) =  -1214.53772985     A.U. after    7 cycles
 Normal termination of Gaussian 16 at Thu Sep 24 08:04:33 2020.

 -----------------------------
 #p B3LYP/6-31G* geom=allcheck
 -----------------------------

 Structure from the checkpoint file:  "SM43_m1.a.8.pdb.xyz.mst.a.w.chk"
 -------------------
 SM43_m1.a.8.pdb.xyz
 -------------------
 Charge = -1 Multiplicity = 1

 SCF Done:  E(RB3LYP) =  -1214.43869984     A.U. after   15 cycles
 Normal termination of Gaussian 16 at Thu Sep 24 08:05:09 2020.
 Gaussian 16:  ES64L-G16RevB.01 20-Dec-2017

 ----------------------------------------------------------------------
 #p mp2/aug-cc-pVDZ scf=(MaxCycle=2000,NoVarAcc,NoIncFock) maxdisk=120G
 B geom=allcheck
 ----------------------------------------------------------------------

 Structure from the checkpoint file:  "SM43_m1.a.8.pdb.xyz.mst.a.w.chk"
 -------------------
 SM43_m1.a.8.pdb.xyz
 -------------------
 Charge = -1 Multiplicity = 1

                         Standard orientation:
 ---------------------------------------------------------------------
 Center     Atomic      Atomic             Coordinates (Angstroms)
 Number     Number       Type             X           Y           Z
 ---------------------------------------------------------------------
      1          8           0       -3.068900    0.461954   -1.719506
      2         16           0       -3.106171   -0.427337   -0.534708
      3          7           0       -1.696533   -1.103486   -0.136880
      4          6           0       -0.513430   -0.413415   -0.211186
      5          7           0       -0.334892    0.870091   -0.529225
      6          8           0        1.071054    1.084631   -0.461876
      7          6           0        1.682254   -0.072573   -0.109149
      8          6           0        3.139331   -0.051424    0.007312
      9          6           0        3.838179   -1.216385    0.366255
     10          6           0        5.225633   -1.198430    0.476539
     11          6           0        5.936545   -0.020364    0.231009
     12          6           0        5.248930    1.141555   -0.126062
     13          6           0        3.860070    1.129468   -0.237810
     14          6           0        0.747449   -1.046217    0.063375
     15          7           0       -3.724386    0.569501    0.721166
     16          6           0       -3.765990   -0.093283    2.027537
     17          6           0       -3.205988    1.938561    0.789858
     18          8           0       -4.075914   -1.543858   -0.587832
     19          1           0        3.292366   -2.133933    0.557924
     20          1           0        5.753206   -2.104655    0.754213
     21          1           0        7.017874   -0.009094    0.317388
     22          1           0        5.794228    2.059539   -0.318197
     23          1           0        3.325375    2.030333   -0.514785
     24          1           0        0.898348   -2.076545    0.342257
     25          1           0       -4.191259   -1.090213    1.912367
     26          1           0       -4.414661    0.491033    2.685610
     27          1           0       -2.774485   -0.173910    2.495394
     28          1           0       -3.175265    2.361065   -0.212637
     29          1           0       -2.206141    1.999007    1.236921
     30          1           0       -3.898002    2.525255    1.401089
 ---------------------------------------------------------------------

 SCF Done:  E(RHF) =  -1208.98493300     A.U. after   18 cycles
 E2 =    -0.2796482968D+01 EUMP2 =    -0.12117814159711D+04

 The electronic state is 1-A.
 Alpha  occ. eigenvalues --  -92.05993 -20.50630 -20.37967 -20.37461 -15.46178
 Alpha  occ. eigenvalues --  -15.45284 -15.39285 -11.20438 -11.18263 -11.17877
 Alpha  occ. eigenvalues --  -11.17515 -11.17391 -11.17265 -11.17179 -11.16751
 Alpha  occ. eigenvalues --  -11.13871 -11.13079 -11.11671  -9.02415  -6.70984
 Alpha  occ. eigenvalues --   -6.70914  -6.70881  -1.34077  -1.28145  -1.15166
 Alpha  occ. eigenvalues --   -1.09115  -1.08767  -1.07370  -0.98738  -0.95910
 Alpha  occ. eigenvalues --   -0.94517  -0.91295  -0.83590  -0.78405  -0.77402
 Alpha  occ. eigenvalues --   -0.75809  -0.69976  -0.67889  -0.64155  -0.60496
 Alpha  occ. eigenvalues --   -0.58325  -0.55498  -0.54992  -0.53651  -0.52053
 Alpha  occ. eigenvalues --   -0.51807  -0.51392  -0.50423  -0.49391  -0.47806
 Alpha  occ. eigenvalues --   -0.45487  -0.44375  -0.43443  -0.43163  -0.42765
 Alpha  occ. eigenvalues --   -0.42621  -0.41511  -0.39285  -0.36072  -0.34217
 Alpha  occ. eigenvalues --   -0.33617  -0.31960  -0.30480  -0.29928  -0.29388
 Alpha  occ. eigenvalues --   -0.27125  -0.26707  -0.24515  -0.20950  -0.18534
 Alpha virt. eigenvalues --    0.08639   0.09711   0.10750   0.11968   0.12608
 Alpha virt. eigenvalues --    0.13248   0.13710   0.14761   0.15397   0.15777
 Alpha virt. eigenvalues --    0.16561   0.16722   0.17099   0.17806   0.17911

 Mulliken charges:
               1
     1  O   -1.229471
     2  S    2.923679
     3  N   -1.171616
     4  C   -0.372249
     5  N   -0.245944
     6  O   -1.081403
     7  C    0.292530
     8  C    1.297717
     9  C    0.629632
    10  C   -0.011196
    11  C    0.554689
    12  C    0.192302
    13  C    0.465977
    14  C    1.585000
    15  N   -1.169805
    16  C    0.709391
    17  C    0.844584
    18  O   -1.189019
    19  H   -0.583145
    20  H   -0.499328
    21  H   -0.453787
    22  H   -0.455267
    23  H   -0.655432
    24  H   -0.612222
    25  H   -0.143286
    26  H   -0.186801
    27  H   -0.040746
    28  H   -0.148250
    29  H   -0.034212
    30  H   -0.212324
 Sum of Mulliken charges =  -1.00000

 Dipole moment (field-independent basis, Debye):
    X=             11.8031    Y=              1.3895    Z=              5.4243  Tot=             13.0639
 Quadrupole moment (field-independent basis, Debye-Ang):
   XX=           -162.7525   YY=           -122.0636   ZZ=           -127.0794
   XY=            -13.1191   XZ=            -15.5100   YZ=             -1.0740

 Normal termination of Gaussian 16 at Thu Sep 24 08:33:03 2020.
