 Gaussian 16, Revision B.01,

 ----------------------------------------------------------------------
 #p b3lyp/6-31G(d) opt freq NoSymm scf=(MaxCycle=2000,NoVarAcc,NoIncFoc
 k) scrf=(iefpcm,read,solvent=water)
 ----------------------------------------------------------------------

 -------------------
 SM43_m1.a.1.pdb.xyz
 -------------------
 Symbolic Z-matrix:
 Charge = -1 Multiplicity = 1

 SCF Done:  E(RB3LYP) =  -1214.53780643     A.U. after   13 cycles
 SCF Done:  E(RB3LYP) =  -1214.53771223     A.U. after    9 cycles
 SCF Done:  E(RB3LYP) =  -1214.53772300     A.U. after    9 cycles
 SCF Done:  E(RB3LYP) =  -1214.53780288     A.U. after    9 cycles
 SCF Done:  E(RB3LYP) =  -1214.53780760     A.U. after    8 cycles
 SCF Done:  E(RB3LYP) =  -1214.53774237     A.U. after    9 cycles
 SCF Done:  E(RB3LYP) =  -1214.53774149     A.U. after    8 cycles
 SCF Done:  E(RB3LYP) =  -1214.53780350     A.U. after    9 cycles
 SCF Done:  E(RB3LYP) =  -1214.53780734     A.U. after    8 cycles
 SCF Done:  E(RB3LYP) =  -1214.53780759     A.U. after    7 cycles
 SCF Done:  E(RB3LYP) =  -1214.53774146     A.U. after    9 cycles
 SCF Done:  E(RB3LYP) =  -1214.53774183     A.U. after    7 cycles
 SCF Done:  E(RB3LYP) =  -1214.53780311     A.U. after    9 cycles
 SCF Done:  E(RB3LYP) =  -1214.53780714     A.U. after    8 cycles
 SCF Done:  E(RB3LYP) =  -1214.53774146     A.U. after    9 cycles
 SCF Done:  E(RB3LYP) =  -1214.53774183     A.U. after    7 cycles
 Optimization completed on the basis of negligible forces.
    -- Stationary point found.
 Normal termination of Gaussian 16 at Thu Sep 24 07:50:20 2020.

 --------------------------------------------------------------------
 #P Geom=AllCheck Guess=TCheck SCRF=Check GenChk RB3LYP/6-31G(d) Freq
 --------------------------------------------------------------------

 Structure from the checkpoint file:  "SM43_m1.a.1.pdb.xyz.mst.a.w.chk"
 -------------------
 SM43_m1.a.1.pdb.xyz
 -------------------
 Charge = -1 Multiplicity = 1

 SCF Done:  E(RB3LYP) =  -1214.53774183     A.U. after    1 cycles

  Exact polarizability: 338.199  15.332 209.368  11.935 -31.545 131.776
 Approx polarizability: 347.257  22.329 260.068  13.403 -47.220 155.107

                      1                      2                      3
                      A                      A                      A
 Frequencies --     23.3978                34.7998                46.3984
 Red. masses --      6.0535                 4.1689                 4.2277
 Frc consts  --      0.0020                 0.0030                 0.0054
 IR Inten    --      5.0399                 2.7204                 2.2949

                      4                      5                      6
                      A                      A                      A
 Frequencies --     69.5910                88.7252                99.5196
 Red. masses --      4.7969                 4.5712                 4.4071
 Frc consts  --      0.0137                 0.0212                 0.0257
 IR Inten    --      0.3206                 2.5170                 1.7488

                      7                      8                      9
                      A                      A                      A
 Frequencies --    146.2932               178.5529               213.5254
 Red. masses --      8.3963                 2.7519                 1.5349
 Frc consts  --      0.1059                 0.0517                 0.0412
 IR Inten    --      0.6334                 4.4325                 0.1066

                     10                     11                     12
                      A                      A                      A
 Frequencies --    227.8139               242.8586               259.6100
 Red. masses --      1.0611                 4.3677                 4.3746
 Frc consts  --      0.0324                 0.1518                 0.1737
 IR Inten    --      0.9138                 7.4896                12.3199

                     13                     14                     15
                      A                      A                      A
 Frequencies --    267.5692               320.4398               336.5432
 Red. masses --      3.3583                 8.7282                 3.3776
 Frc consts  --      0.1417                 0.5280                 0.2254
 IR Inten    --      1.3625                16.8777                 9.0683

                     16                     17                     18
                      A                      A                      A
 Frequencies --    355.4995               392.5537               406.1782
 Red. masses --      4.8407                 8.0787                 7.2566
 Frc consts  --      0.3604                 0.7335                 0.7054
 IR Inten    --      7.4781                 4.6665                 3.4774

                     19                     20                     21
                      A                      A                      A
 Frequencies --    414.2352               468.8703               475.4736
 Red. masses --      3.0241                 6.0136                 6.2771
 Frc consts  --      0.3057                 0.7789                 0.8361
 IR Inten    --      0.0727                36.5517                 3.9639

                     22                     23                     24
                      A                      A                      A
 Frequencies --    490.7165               497.0349               572.2679
 Red. masses --      4.6853                 4.2751                 9.8410
 Frc consts  --      0.6647                 0.6223                 1.8988
 IR Inten    --     38.9299                 0.2632               154.1149

                     25                     26                     27
                      A                      A                      A
 Frequencies --    631.7176               643.0203               654.5408
 Red. masses --      6.4561                 7.8621                 7.3829
 Frc consts  --      1.5180                 1.9153                 1.8636
 IR Inten    --      0.2011               294.2844                 8.4975

                     28                     29                     30
                      A                      A                      A
 Frequencies --    689.7434               707.2551               712.4653
 Red. masses --      6.7656                 1.8617                 4.3115
 Frc consts  --      1.8964                 0.5487                 1.2895
 IR Inten    --     12.2355                59.1848                58.1314

                     31                     32                     33
                      A                      A                      A
 Frequencies --    723.3738               780.8316               802.8610
 Red. masses --      7.6776                 1.4535                 1.9201
 Frc consts  --      2.3670                 0.5221                 0.7292
 IR Inten    --    188.5364               101.2519                 6.7725

                     34                     35                     36
                      A                      A                      A
 Frequencies --    865.6755               887.5581               917.7322
 Red. masses --      1.2521                12.1118                13.0602
 Frc consts  --      0.5528                 5.6215                 6.4809
 IR Inten    --      0.0158               198.0373                58.4438

                     37                     38                     39
                      A                      A                      A
 Frequencies --    939.2697               943.4775               957.7817
 Red. masses --      3.2198                 1.3843                 8.4503
 Frc consts  --      1.6736                 0.7260                 4.5672
 IR Inten    --    130.7011                 3.6325                31.1926

                     40                     41                     42
                      A                      A                      A
 Frequencies --    983.8457              1014.0877              1016.3757
 Red. masses --      1.3486                 1.2591                 6.1005
 Frc consts  --      0.7691                 0.7629                 3.7130
 IR Inten    --      0.0088                 0.1088                 0.2167

                     43                     44                     45
                      A                      A                      A
 Frequencies --   1035.0952              1055.5101              1063.1090
 Red. masses --      2.2222                 2.4685                 1.4980
 Frc consts  --      1.4028                 1.6204                 0.9975
 IR Inten    --     16.4127                14.3048                12.6038

                     46                     47                     48
                      A                      A                      A
 Frequencies --   1078.9040              1096.5688              1109.4159
 Red. masses --      6.3205                 5.1230                 1.5930
 Frc consts  --      4.3348                 3.6295                 1.1552
 IR Inten    --    440.7046               239.7079                17.1910

                     49                     50                     51
                      A                      A                      A
 Frequencies --   1127.3924              1174.4170              1188.8101
 Red. masses --      1.2205                 1.3990                 1.0966
 Frc consts  --      0.9140                 1.1369                 0.9131
 IR Inten    --      8.1642                 2.7498                 0.3116

                     52                     53                     54
                      A                      A                      A
 Frequencies --   1204.4238              1217.3214              1229.6409
 Red. masses --      1.1730                 4.9655                 2.4237
 Frc consts  --      1.0026                 4.3353                 2.1592
 IR Inten    --     21.2635                44.8202                74.1036

                     55                     56                     57
                      A                      A                      A
 Frequencies --   1235.7590              1270.5987              1294.6349
 Red. masses --      9.3525                 1.9463                 4.8755
 Frc consts  --      8.4148                 1.8513                 4.8146
 IR Inten    --    459.7214                15.9144                 4.7162

                     58                     59                     60
                      A                      A                      A
 Frequencies --   1348.2355              1368.1470              1431.0319
 Red. masses --      3.3055                 1.9978                 6.6202
 Frc consts  --      3.5401                 2.2033                 7.9876
 IR Inten    --     34.5240                 2.0743               290.2441

                     61                     62                     63
                      A                      A                      A
 Frequencies --   1444.4670              1459.3437              1484.2833
 Red. masses --      1.1495                 1.1865                 4.9572
 Frc consts  --      1.4131                 1.4888                 6.4346
 IR Inten    --      2.4336                14.2257               542.6881

                     64                     65                     66
                      A                      A                      A
 Frequencies --   1498.1042              1503.7976              1511.6120
 Red. masses --      2.4681                 1.0551                 1.0533
 Frc consts  --      3.2635                 1.4058                 1.4181
 IR Inten    --    190.7140                22.0395                33.0121

                     67                     68                     69
                      A                      A                      A
 Frequencies --   1515.1182              1523.6880              1541.2156
 Red. masses --      1.0884                 1.0517                 2.3576
 Frc consts  --      1.4721                 1.4386                 3.2995
 IR Inten    --     13.0302                15.5092               158.8389

                     70                     71                     72
                      A                      A                      A
 Frequencies --   1627.2243              1651.9210              1666.9156
 Red. masses --      5.7096                 6.8043                 6.2022
 Frc consts  --      8.9073                10.9398                10.1537
 IR Inten    --    107.9993               108.0078                33.6411

                     73                     74                     75
                      A                      A                      A
 Frequencies --   3025.5850              3045.5181              3111.5027
 Red. masses --      1.0496                 1.0427                 1.0967
 Frc consts  --      5.6611                 5.6980                 6.2558
 IR Inten    --     79.6160                77.6507                92.1735

                     76                     77                     78
                      A                      A                      A
 Frequencies --   3114.5202              3176.4115              3192.6385
 Red. masses --      1.0903                 1.1002                 1.0980
 Frc consts  --      6.2312                 6.5400                 6.5940
 IR Inten    --     21.9574                16.5974                11.9288

                     79                     80                     81
                      A                      A                      A
 Frequencies --   3205.2487              3212.4960              3220.0776
 Red. masses --      1.0857                 1.0884                 1.0924
 Frc consts  --      6.5715                 6.6179                 6.6738
 IR Inten    --      1.1194                 5.9932                44.8826

                     82                     83                     84
                      A                      A                      A
 Frequencies --   3228.7283              3237.0558              3301.6255
 Red. masses --      1.0958                 1.0948                 1.0983
 Frc consts  --      6.7307                 6.7588                 7.0539
 IR Inten    --     45.3878                13.6753                 1.0664

 - Thermochemistry -
 -------------------
 Temperature   298.150 Kelvin.  Pressure   1.00000 Atm.
 Atom     1 has atomic number  8 and mass  15.99491

 Molecular mass:   266.05994 amu.
 Principal axes and moments of inertia in atomic units:
                           1         2         3
     Eigenvalues --  1520.51477********************
           X            0.99924  -0.00890  -0.03795
           Y            0.01322   0.99325   0.11527
           Z            0.03666  -0.11568   0.99261
 This molecule is an asymmetric top.
 Rotational symmetry number  1.
 Warning -- assumption of classical behavior for rotation
           may cause significant error
 Rotational temperatures (Kelvin)      0.05696     0.00747     0.00724
 Rotational constants (GHZ):           1.18693     0.15557     0.15081
 Zero-point vibrational energy     595310.8 (Joules/Mol)
                                  142.28270 (Kcal/Mol)
 Warning -- explicit consideration of  24 degrees of freedom as
           vibrations may cause significant error
 Vibrational temperatures:     33.66    50.07    66.76   100.13   127.66
          (Kelvin)            143.19   210.48   256.90   307.22   327.77
                              349.42   373.52   384.97   461.04   484.21
                              511.48   564.80   584.40   595.99   674.60
                              684.10   706.03   715.12   823.37   908.90
                              925.16   941.74   992.39  1017.58  1025.08
                             1040.77  1123.44  1155.14  1245.51  1277.00
                             1320.41  1351.40  1357.45  1378.03  1415.53
                             1459.05  1462.34  1489.27  1518.64  1529.58
                             1552.30  1577.72  1596.20  1622.07  1689.72
                             1710.43  1732.90  1751.45  1769.18  1777.98
                             1828.11  1862.69  1939.81  1968.46  2058.94
                             2078.27  2099.67  2135.55  2155.44  2163.63
                             2174.87  2179.92  2192.25  2217.47  2341.21
                             2376.75  2398.32  4353.14  4381.82  4476.76
                             4481.10  4570.15  4593.49  4611.64  4622.07
                             4632.97  4645.42  4657.40  4750.30

 Zero-point correction=                           0.226742 (Hartree/Particle)
 Thermal correction to Energy=                    0.243179
 Thermal correction to Enthalpy=                  0.244123
 Thermal correction to Gibbs Free Energy=         0.180869
 Sum of electronic and zero-point Energies=          -1214.311000
 Sum of electronic and thermal Energies=             -1214.294563
 Sum of electronic and thermal Enthalpies=           -1214.293619
 Sum of electronic and thermal Free Energies=        -1214.356872

                     E (Thermal)             CV                S
                      KCal/Mol        Cal/Mol-Kelvin    Cal/Mol-Kelvin
 Total                  152.597             61.996            133.128
 Electronic               0.000              0.000              0.000
 Translational            0.889              2.981             42.635
 Rotational               0.889              2.981             33.712
 Vibrational            150.819             56.035             56.781
 Vibration     1          0.593              1.985              6.323
 Vibration     2          0.594              1.983              5.535
 Vibration     3          0.595              1.979              4.965
 Vibration     4          0.598              1.969              4.165
 Vibration     5          0.602              1.957              3.688
 Vibration     6          0.604              1.949              3.464
 Vibration     7          0.617              1.907              2.720
 Vibration     8          0.629              1.869              2.343
 Vibration     9          0.644              1.820              2.013
 Vibration    10          0.651              1.799              1.896
 Vibration    11          0.659              1.775              1.782
 Vibration    12          0.668              1.746              1.664
 Vibration    13          0.673              1.733              1.612
 Vibration    14          0.706              1.634              1.308
 Vibration    15          0.717              1.603              1.228
 Vibration    16          0.731              1.564              1.142
 Vibration    17          0.760              1.486              0.990
 Vibration    18          0.771              1.457              0.940
 Vibration    19          0.778              1.439              0.912
 Vibration    20          0.826              1.319              0.741
 Vibration    21          0.832              1.304              0.722
 Vibration    22          0.847              1.271              0.682
 Vibration    23          0.853              1.257              0.666
 Vibration    24          0.928              1.091              0.500

 Optimization completed.
    -- Stationary point found.
 Normal termination of Gaussian 16 at Thu Sep 24 07:58:14 2020.

 ----------------------------------------------------------------------
 #p b3lyp/6-31G(d) scrf=(iefpcm,read,solvent=water) geom=allcheck guess
 =read
 ----------------------------------------------------------------------

 Structure from the checkpoint file:  "SM43_m1.a.1.pdb.xyz.mst.a.w.chk"
 -------------------
 SM43_m1.a.1.pdb.xyz
 -------------------
 Charge = -1 Multiplicity = 1

 SCF Done:  E(RB3LYP) =  -1214.53772741     A.U. after    7 cycles
 Normal termination of Gaussian 16 at Thu Sep 24 07:58:56 2020.

 -----------------------------
 #p B3LYP/6-31G* geom=allcheck
 -----------------------------

 Structure from the checkpoint file:  "SM43_m1.a.1.pdb.xyz.mst.a.w.chk"
 -------------------
 SM43_m1.a.1.pdb.xyz
 -------------------
 Charge = -1 Multiplicity = 1

 SCF Done:  E(RB3LYP) =  -1214.43870158     A.U. after   15 cycles
 Normal termination of Gaussian 16 at Thu Sep 24 07:59:33 2020.
 Gaussian 16:  ES64L-G16RevB.01 20-Dec-2017

 ----------------------------------------------------------------------
 #p mp2/aug-cc-pVDZ scf=(MaxCycle=2000,NoVarAcc,NoIncFock) maxdisk=120G
 B geom=allcheck
 ----------------------------------------------------------------------

 Structure from the checkpoint file:  "SM43_m1.a.1.pdb.xyz.mst.a.w.chk"
 -------------------
 SM43_m1.a.1.pdb.xyz
 -------------------
 Charge = -1 Multiplicity = 1

                         Standard orientation:
 ---------------------------------------------------------------------
 Center     Atomic      Atomic             Coordinates (Angstroms)
 Number     Number       Type             X           Y           Z
 ---------------------------------------------------------------------
      1          8           0       -3.069079    0.458526   -1.720512
      2         16           0       -3.106201   -0.428470   -0.533976
      3          7           0       -1.696612   -1.104344   -0.135452
      4          6           0       -0.513553   -0.414246   -0.210285
      5          7           0       -0.335203    0.869104   -0.529070
      6          8           0        1.070741    1.083884   -0.461998
      7          6           0        1.682068   -0.073038   -0.108696
      8          6           0        3.139148   -0.051798    0.007517
      9          6           0        3.859202    1.128921   -0.238148
     10          6           0        5.247704    1.142348   -0.127050
     11          6           0        5.936411   -0.018801    0.230182
     12          6           0        5.226548   -1.197407    0.476477
     13          6           0        3.838662   -1.216760    0.366767
     14          6           0        0.747430   -1.046719    0.064489
     15          7           0       -3.723760    0.570869    0.720214
     16          6           0       -3.764031   -0.089126    2.028028
     17          6           0       -3.206447    1.940500    0.785419
     18          8           0       -4.076257   -1.544838   -0.584716
     19          1           0        3.324325    2.029614   -0.515289
     20          1           0        5.791908    2.060809   -0.319829
     21          1           0        7.017767   -0.006659    0.316122
     22          1           0        5.755239   -2.102983    0.754274
     23          1           0        3.293362   -2.134531    0.558886
     24          1           0        0.898749   -2.076830    0.343970
     25          1           0       -4.188159   -1.086777    1.915127
     26          1           0       -4.413145    0.495780    2.685262
     27          1           0       -2.772235   -0.167644    2.495564
     28          1           0       -3.176626    2.360605   -0.218109
     29          1           0       -2.206371    2.002830    1.231854
     30          1           0       -3.898663    2.528074    1.395554
 ---------------------------------------------------------------------

 SCF Done:  E(RHF) =  -1208.98493496     A.U. after   18 cycles
 E2 =    -0.2796482493D+01 EUMP2 =    -0.12117814174503D+04

 The electronic state is 1-A.
 Alpha  occ. eigenvalues --  -92.05993 -20.50632 -20.37967 -20.37460 -15.46179
 Alpha  occ. eigenvalues --  -15.45282 -15.39285 -11.20438 -11.18264 -11.17878
 Alpha  occ. eigenvalues --  -11.17517 -11.17396 -11.17259 -11.17192 -11.16738
 Alpha  occ. eigenvalues --  -11.13871 -11.13077 -11.11671  -9.02414  -6.70983
 Alpha  occ. eigenvalues --   -6.70914  -6.70880  -1.34079  -1.28144  -1.15165
 Alpha  occ. eigenvalues --   -1.09114  -1.08767  -1.07370  -0.98738  -0.95910
 Alpha  occ. eigenvalues --   -0.94518  -0.91295  -0.83590  -0.78404  -0.77404
 Alpha  occ. eigenvalues --   -0.75808  -0.69976  -0.67889  -0.64155  -0.60498
 Alpha  occ. eigenvalues --   -0.58325  -0.55500  -0.54991  -0.53651  -0.52054
 Alpha  occ. eigenvalues --   -0.51808  -0.51391  -0.50424  -0.49390  -0.47806
 Alpha  occ. eigenvalues --   -0.45487  -0.44379  -0.43442  -0.43162  -0.42763
 Alpha  occ. eigenvalues --   -0.42617  -0.41514  -0.39284  -0.36073  -0.34216
 Alpha  occ. eigenvalues --   -0.33618  -0.31960  -0.30480  -0.29928  -0.29388
 Alpha  occ. eigenvalues --   -0.27125  -0.26707  -0.24512  -0.20950  -0.18535
 Alpha virt. eigenvalues --    0.08639   0.09710   0.10750   0.11969   0.12606
 Alpha virt. eigenvalues --    0.13249   0.13711   0.14763   0.15397   0.15776
 Alpha virt. eigenvalues --    0.16559   0.16724   0.17097   0.17806   0.17911

 Mulliken charges:
               1
     1  O   -1.229616
     2  S    2.923683
     3  N   -1.171809
     4  C   -0.372468
     5  N   -0.245750
     6  O   -1.081553
     7  C    0.293345
     8  C    1.297291
     9  C    0.466539
    10  C    0.191712
    11  C    0.555718
    12  C   -0.011211
    13  C    0.629018
    14  C    1.585136
    15  N   -1.169798
    16  C    0.709401
    17  C    0.844588
    18  O   -1.189081
    19  H   -0.655789
    20  H   -0.455468
    21  H   -0.453778
    22  H   -0.499219
    23  H   -0.583173
    24  H   -0.611957
    25  H   -0.143359
    26  H   -0.186682
    27  H   -0.041016
    28  H   -0.148411
    29  H   -0.034023
    30  H   -0.212269
 Sum of Mulliken charges =  -1.00000

 Dipole moment (field-independent basis, Debye):
    X=             11.8061    Y=              1.4011    Z=              5.4180  Tot=             13.0653
 Quadrupole moment (field-independent basis, Debye-Ang):
   XX=           -162.7636   YY=           -122.0612   ZZ=           -127.0786
   XY=            -13.1523   XZ=            -15.4863   YZ=             -1.0781

 Normal termination of Gaussian 16 at Thu Sep 24 08:39:51 2020.
