 Gaussian 16, Revision B.01,

 ----------------------------------------------------------------------
 #p b3lyp/6-31G(d) opt freq NoSymm scf=(MaxCycle=2000,NoVarAcc,NoIncFoc
 k) scrf=(iefpcm,read,solvent=water)
 ----------------------------------------------------------------------

 -------------------
 SM43_m3.b.6.pdb.xyz
 -------------------
 Symbolic Z-matrix:
 Charge =  2 Multiplicity = 1

 SCF Done:  E(RB3LYP) =  -1215.87161057     A.U. after   13 cycles
 SCF Done:  E(RB3LYP) =  -1215.87161857     A.U. after    8 cycles
 SCF Done:  E(RB3LYP) =  -1215.87161802     A.U. after    7 cycles
 SCF Done:  E(RB3LYP) =  -1215.87161936     A.U. after    7 cycles
 SCF Done:  E(RB3LYP) =  -1215.87161878     A.U. after    6 cycles
 Optimization completed.
    -- Stationary point found.
 Normal termination of Gaussian 16 at Mon Sep 28 08:16:20 2020.

 --------------------------------------------------------------------
 #P Geom=AllCheck Guess=TCheck SCRF=Check GenChk RB3LYP/6-31G(d) Freq
 --------------------------------------------------------------------

 Structure from the checkpoint file:  "SM43_m3.b.6.pdb.xyz.mst.b.w.chk"
 -------------------
 SM43_m3.b.6.pdb.xyz
 -------------------
 Charge =  2 Multiplicity = 1

 SCF Done:  E(RB3LYP) =  -1215.87161878     A.U. after    1 cycles

  Exact polarizability: 350.335   1.207 186.107  26.633  39.845 136.561
 Approx polarizability: 352.368   1.708 233.680  30.415  55.722 164.914

                      1                      2                      3
                      A                      A                      A
 Frequencies --     44.7813                55.3115                66.5472
 Red. masses --      5.0606                 4.2182                 3.3946
 Frc consts  --      0.0060                 0.0076                 0.0089
 IR Inten    --      3.8428                 4.4116                 0.7222

                      4                      5                      6
                      A                      A                      A
 Frequencies --     81.1057                93.6283               109.1040
 Red. masses --      4.0018                 5.2811                 4.9280
 Frc consts  --      0.0155                 0.0273                 0.0346
 IR Inten    --      0.6212                 5.5899                 2.2668

                      7                      8                      9
                      A                      A                      A
 Frequencies --    156.2943               179.3222               211.3887
 Red. masses --      7.3625                 4.8166                 1.2775
 Frc consts  --      0.1060                 0.0913                 0.0336
 IR Inten    --      4.0653                 3.6890                 0.3205

                     10                     11                     12
                      A                      A                      A
 Frequencies --    230.2654               235.7065               249.5179
 Red. masses --      3.0523                 4.9600                 4.8232
 Frc consts  --      0.0954                 0.1624                 0.1769
 IR Inten    --      1.1553                 0.5071                11.1850

                     13                     14                     15
                      A                      A                      A
 Frequencies --    291.9814               296.4751               309.1006
 Red. masses --      5.0163                 2.7969                 1.9653
 Frc consts  --      0.2520                 0.1448                 0.1106
 IR Inten    --      1.8636                 4.9580                12.7921

                     16                     17                     18
                      A                      A                      A
 Frequencies --    330.7074               369.4419               393.1284
 Red. masses --      2.5044                 4.2223                 4.8709
 Frc consts  --      0.1614                 0.3395                 0.4435
 IR Inten    --     35.4493                 4.8977                45.0966

                     19                     20                     21
                      A                      A                      A
 Frequencies --    410.4011               429.0819               437.9185
 Red. masses --      2.9451                 2.5224                 1.8852
 Frc consts  --      0.2923                 0.2736                 0.2130
 IR Inten    --      0.8344                12.4885               120.5569

                     22                     23                     24
                      A                      A                      A
 Frequencies --    464.5363               491.6304               498.9834
 Red. masses --      4.6804                 1.3451                 2.8486
 Frc consts  --      0.5951                 0.1916                 0.4179
 IR Inten    --     10.1831               206.8107                 2.2686

                     25                     26                     27
                      A                      A                      A
 Frequencies --    513.5379               567.2554               599.7550
 Red. masses --      3.4162                 5.4618                 8.3557
 Frc consts  --      0.5308                 1.0355                 1.7708
 IR Inten    --     11.6725                83.0441               396.7433

                     28                     29                     30
                      A                      A                      A
 Frequencies --    628.5168               659.0446               698.6196
 Red. masses --      6.4573                 5.7631                 5.6196
 Frc consts  --      1.5029                 1.4748                 1.6160
 IR Inten    --      1.1261                 8.6255                45.2090

                     31                     32                     33
                      A                      A                      A
 Frequencies --    700.8224               709.7270               772.9249
 Red. masses --      2.2681                 2.3339                 5.2865
 Frc consts  --      0.6563                 0.6926                 1.8608
 IR Inten    --     34.6376                13.2522                 9.8233

                     34                     35                     36
                      A                      A                      A
 Frequencies --    784.9595               822.3062               855.8850
 Red. masses --      1.6105                 1.7924                 3.7297
 Frc consts  --      0.5846                 0.7141                 1.6097
 IR Inten    --     96.3984                29.5060               158.7153

                     37                     38                     39
                      A                      A                      A
 Frequencies --    863.9620               874.4602               950.0852
 Red. masses --      1.2531                 5.6894                 6.8134
 Frc consts  --      0.5511                 2.5633                 3.6236
 IR Inten    --      1.0877               273.7733                39.7652

                     40                     41                     42
                      A                      A                      A
 Frequencies --    960.6597               991.7686               999.6349
 Red. masses --      1.3772                 1.3546                 2.7400
 Frc consts  --      0.7489                 0.7850                 1.6132
 IR Inten    --      2.0531                 0.0762                37.2622

                     43                     44                     45
                      A                      A                      A
 Frequencies --   1016.8130              1023.4966              1044.0238
 Red. masses --      6.0318                 1.2929                 4.3046
 Frc consts  --      3.6743                 0.7980                 2.7644
 IR Inten    --      6.4779                 0.0198                37.4025

                     46                     47                     48
                      A                      A                      A
 Frequencies --   1063.0320              1071.8359              1072.8269
 Red. masses --      3.2957                 1.1459                 1.8923
 Frc consts  --      2.1942                 0.7756                 1.2832
 IR Inten    --     35.4652                20.5176                44.7797

                     49                     50                     51
                      A                      A                      A
 Frequencies --   1119.7159              1144.8159              1152.6609
 Red. masses --      1.6219                 3.8940                 1.6433
 Frc consts  --      1.1981                 3.0069                 1.2864
 IR Inten    --     24.6896               238.1830                32.9589

                     52                     53                     54
                      A                      A                      A
 Frequencies --   1167.9445              1185.5020              1197.6126
 Red. masses --      3.1667                 2.2125                 1.0944
 Frc consts  --      2.5450                 1.8321                 0.9249
 IR Inten    --    123.0360                88.9788                 0.6735

                     55                     56                     57
                      A                      A                      A
 Frequencies --   1216.2904              1233.3517              1253.8823
 Red. masses --      1.1450                 1.7230                 1.6196
 Frc consts  --      0.9980                 1.5442                 1.5003
 IR Inten    --     23.3513               111.8619                 3.5400

                     58                     59                     60
                      A                      A                      A
 Frequencies --   1287.6474              1350.4533              1374.3855
 Red. masses --      3.8159                 2.6009                 1.5348
 Frc consts  --      3.7277                 2.7947                 1.7082
 IR Inten    --     24.8794                23.7924                21.6943

                     61                     62                     63
                      A                      A                      A
 Frequencies --   1376.2729              1381.0062              1405.0513
 Red. masses --      4.1424                 1.9421                 1.3028
 Frc consts  --      4.6229                 2.1823                 1.5154
 IR Inten    --    112.1362                14.9492                45.8405

                     64                     65                     66
                      A                      A                      A
 Frequencies --   1434.7698              1449.9502              1462.1785
 Red. masses --      1.5098                 1.3430                 1.1847
 Frc consts  --      1.8312                 1.6635                 1.4923
 IR Inten    --     57.3497                29.4346                12.0342

                     67                     68                     69
                      A                      A                      A
 Frequencies --   1465.2744              1497.4437              1505.0662
 Red. masses --      1.3697                 2.2864                 1.0589
 Frc consts  --      1.7327                 3.0206                 1.4132
 IR Inten    --     99.6695                49.7710                27.4861

                     70                     71                     72
                      A                      A                      A
 Frequencies --   1509.8480              1514.4194              1522.6608
 Red. masses --      1.0414                 1.0579                 2.4241
 Frc consts  --      1.3988                 1.4296                 3.3114
 IR Inten    --     22.7532                55.6743              1031.2118

                     73                     74                     75
                      A                      A                      A
 Frequencies --   1542.8361              1544.7458              1600.3421
 Red. masses --      1.4528                 1.4746                 5.1506
 Frc consts  --      2.0375                 2.0732                 7.7721
 IR Inten    --    308.5400               189.8746                 2.9323

                     76                     77                     78
                      A                      A                      A
 Frequencies --   1638.2781              1651.2052              1659.7496
 Red. masses --      5.2442                 5.9315                 5.4052
 Frc consts  --      8.2928                 9.5283                 8.7730
 IR Inten    --    158.1938               708.7170                54.1769

                     79                     80                     81
                      A                      A                      A
 Frequencies --   3129.4858              3133.6258              3218.3391
 Red. masses --      1.0292                 1.0298                 1.0865
 Frc consts  --      5.9386                 5.9577                 6.6302
 IR Inten    --      1.9535                 2.6131                 0.1437

                     82                     83                     84
                      A                      A                      A
 Frequencies --   3225.4136              3226.3838              3231.9432
 Red. masses --      1.0885                 1.1084                 1.0919
 Frc consts  --      6.6722                 6.7981                 6.7200
 IR Inten    --      3.9011                 1.0598                22.0472

                     85                     86                     87
                      A                      A                      A
 Frequencies --   3231.9925              3238.8373              3241.7598
 Red. masses --      1.1097                 1.0949                 1.1106
 Frc consts  --      6.8294                 6.7671                 6.8768
 IR Inten    --      2.0055                26.3823                 1.3109

                     88                     89                     90
                      A                      A                      A
 Frequencies --   3243.6974              3245.8378              3325.7938
 Red. masses --      1.0976                 1.1102                 1.1012
 Frc consts  --      6.8044                 6.8916                 7.1767
 IR Inten    --     19.0547                 0.9955                17.7640

                     91                     92                     93
                      A                      A                      A
 Frequencies --   3351.0965              3447.6942              3538.5212
 Red. masses --      1.0783                 1.0786                 1.0876
 Frc consts  --      7.1342                 7.5540                 8.0236
 IR Inten    --    290.1643               436.1674               706.1511

 - Thermochemistry -
 -------------------
 Temperature   298.150 Kelvin.  Pressure   1.00000 Atm.
 Atom     1 has atomic number  8 and mass  15.99491

 Molecular mass:   269.08341 amu.
 Principal axes and moments of inertia in atomic units:
                           1         2         3
     Eigenvalues --  1321.35774********************
           X            0.99545  -0.07962   0.05226
           Y            0.01687   0.68747   0.72602
           Z            0.09374   0.72184  -0.68569
 This molecule is an asymmetric top.
 Rotational symmetry number  1.
 Warning -- assumption of classical behavior for rotation
           may cause significant error
 Rotational temperatures (Kelvin)      0.06555     0.00686     0.00672
 Rotational constants (GHZ):           1.36582     0.14287     0.13999
 Zero-point vibrational energy     703153.6 (Joules/Mol)
                                  168.05773 (Kcal/Mol)
 Warning -- explicit consideration of  27 degrees of freedom as
           vibrations may cause significant error
 Vibrational temperatures:     64.43    79.58    95.75   116.69   134.71
          (Kelvin)            156.98   224.87   258.00   304.14   331.30
                              339.13   359.00   420.10   426.56   444.73
                              475.81   531.54   565.62   590.48   617.35
                              630.07   668.36   707.35   717.93   738.87
                              816.15   862.91   904.30   948.22  1005.16
                             1008.33  1021.14  1112.07  1129.38  1183.12
                             1231.43  1243.05  1258.15  1366.96  1382.17
                             1426.93  1438.25  1462.97  1472.58  1502.12
                             1529.47  1542.13  1543.56  1611.02  1647.13
                             1658.42  1680.41  1705.67  1723.10  1749.97
                             1774.52  1804.06  1852.64  1943.00  1977.43
                             1980.15  1986.96  2021.56  2064.31  2086.15
                             2103.75  2108.20  2154.49  2165.45  2172.33
                             2178.91  2190.77  2219.80  2222.54  2302.54
                             2357.12  2375.72  2388.01  4502.63  4508.59
                             4630.47  4640.65  4642.05  4650.05  4650.12
                             4659.96  4664.17  4666.96  4670.04  4785.08
                             4821.48  4960.46  5091.14

 Zero-point correction=                           0.267817 (Hartree/Particle)
 Thermal correction to Energy=                    0.284717
 Thermal correction to Enthalpy=                  0.285661
 Thermal correction to Gibbs Free Energy=         0.223090
 Sum of electronic and zero-point Energies=          -1215.603802
 Sum of electronic and thermal Energies=             -1215.586902
 Sum of electronic and thermal Enthalpies=           -1215.585958
 Sum of electronic and thermal Free Energies=        -1215.648529

                     E (Thermal)             CV                S
                      KCal/Mol        Cal/Mol-Kelvin    Cal/Mol-Kelvin
 Total                  178.662             65.055            131.692
 Electronic               0.000              0.000              0.000
 Translational            0.889              2.981             42.669
 Rotational               0.889              2.981             33.731
 Vibrational            176.885             59.094             55.293
 Vibration     1          0.595              1.979              5.035
 Vibration     2          0.596              1.975              4.618
 Vibration     3          0.598              1.970              4.253
 Vibration     4          0.600              1.962              3.864
 Vibration     5          0.603              1.954              3.583
 Vibration     6          0.606              1.942              3.285
 Vibration     7          0.620              1.896              2.594
 Vibration     8          0.629              1.868              2.335
 Vibration     9          0.643              1.823              2.032
 Vibration    10          0.652              1.795              1.877
 Vibration    11          0.655              1.786              1.835
 Vibration    12          0.662              1.764              1.734
 Vibration    13          0.687              1.689              1.462
 Vibration    14          0.690              1.680              1.437
 Vibration    15          0.698              1.656              1.367
 Vibration    16          0.713              1.614              1.257
 Vibration    17          0.742              1.535              1.082
 Vibration    18          0.760              1.485              0.988
 Vibration    19          0.775              1.448              0.925
 Vibration    20          0.790              1.407              0.862
 Vibration    21          0.798              1.388              0.833
 Vibration    22          0.822              1.329              0.753
 Vibration    23          0.847              1.269              0.679
 Vibration    24          0.854              1.252              0.661
 Vibration    25          0.869              1.220              0.625
 Vibration    26          0.923              1.102              0.510
 Vibration    27          0.958              1.032              0.450

 Optimization completed.
    -- Stationary point found.
 Normal termination of Gaussian 16 at Mon Sep 28 08:24:52 2020.

 ----------------------------------------------------------------------
 #p b3lyp/6-31G(d) scrf=(iefpcm,read,solvent=water) geom=allcheck guess
 =read
 ----------------------------------------------------------------------

 Structure from the checkpoint file:  "SM43_m3.b.6.pdb.xyz.mst.b.w.chk"
 -------------------
 SM43_m3.b.6.pdb.xyz
 -------------------
 Charge =  2 Multiplicity = 1

 SCF Done:  E(RB3LYP) =  -1215.87133697     A.U. after    8 cycles
 Normal termination of Gaussian 16 at Mon Sep 28 08:25:33 2020.

 -----------------------------
 #p B3LYP/6-31G* geom=allcheck
 -----------------------------

 Structure from the checkpoint file:  "SM43_m3.b.6.pdb.xyz.mst.b.w.chk"
 -------------------
 SM43_m3.b.6.pdb.xyz
 -------------------
 Charge =  2 Multiplicity = 1

 SCF Done:  E(RB3LYP) =  -1215.57363934     A.U. after   16 cycles
 Normal termination of Gaussian 16 at Mon Sep 28 08:26:17 2020.
 Gaussian 16:  ES64L-G16RevB.01 20-Dec-2017

 ----------------------------------------------------------------------
 #p mp2/aug-cc-pVDZ scf=(MaxCycle=2000,NoVarAcc,NoIncFock) maxdisk=120G
 B geom=allcheck
 ----------------------------------------------------------------------

 Structure from the checkpoint file:  "SM43_m3.b.6.pdb.xyz.mst.b.w.chk"
 -------------------
 SM43_m3.b.6.pdb.xyz
 -------------------
 Charge =  2 Multiplicity = 1

                         Standard orientation:
 ---------------------------------------------------------------------
 Center     Atomic      Atomic             Coordinates (Angstroms)
 Number     Number       Type             X           Y           Z
 ---------------------------------------------------------------------
      1          8           0       -3.706284    1.425726   -1.237459
      2         16           0       -2.973775    0.345500   -0.619668
      3          7           0       -1.555225    0.924241    0.022316
      4          6           0       -0.309902    0.342897   -0.060183
      5          7           0       -0.066845   -0.928819   -0.362193
      6          8           0        1.278276   -1.163035   -0.328327
      7          6           0        1.874564    0.014400   -0.013945
      8          6           0        3.321927    0.023380    0.045584
      9          6           0        3.986451    1.171982    0.508263
     10          6           0        5.375303    1.190216    0.564267
     11          6           0        6.107437    0.070478    0.159241
     12          6           0        5.448941   -1.072959   -0.301438
     13          6           0        4.059672   -1.103236   -0.358876
     14          6           0        0.917107    0.986045    0.168238
     15          7           0       -3.922582    0.003623    0.930803
     16          6           0       -5.347996   -0.317737    0.577721
     17          6           0       -3.267780   -1.045924    1.779409
     18          8           0       -2.721169   -0.943557   -1.226923
     19          1           0       -1.572541    1.925360    0.245881
     20          1           0        3.418895    2.038652    0.826998
     21          1           0        5.886644    2.075602    0.924215
     22          1           0        7.190837    0.089024    0.202185
     23          1           0        6.018642   -1.939033   -0.618075
     24          1           0        3.543396   -1.984835   -0.719570
     25          1           0        1.061842    2.025090    0.409090
     26          1           0       -5.745578    0.492333   -0.027503
     27          1           0       -5.892287   -0.393441    1.516548
     28          1           0       -5.376365   -1.264412    0.042955
     29          1           0       -2.282217   -0.691711    2.071716
     30          1           0       -3.210394   -1.974540    1.216119
     31          1           0       -3.894269   -1.171215    2.660792
     32          1           0       -3.909968    0.901683    1.449023
     33          1           0       -0.644585   -1.760190   -0.490170
 ---------------------------------------------------------------------

 SCF Done:  E(RHF) =  -1210.11511839     A.U. after   16 cycles
 E2 =    -0.2765708065D+01 EUMP2 =    -0.12128808264515D+04

 The electronic state is 1-A.
 Alpha  occ. eigenvalues --  -92.59023 -20.96745 -20.90499 -20.89752 -16.02221
 Alpha  occ. eigenvalues --  -15.98319 -15.97315 -11.69284 -11.63621 -11.58820
 Alpha  occ. eigenvalues --  -11.57206 -11.53151 -11.48593 -11.47619 -11.47272
 Alpha  occ. eigenvalues --  -11.46127 -11.44771 -11.44669  -9.55380  -7.23912
 Alpha  occ. eigenvalues --   -7.23877  -7.23835  -1.83074  -1.81181  -1.68803
 Alpha  occ. eigenvalues --   -1.62332  -1.61383  -1.49930  -1.41297  -1.37006
 Alpha  occ. eigenvalues --   -1.29650  -1.27506  -1.25931  -1.23732  -1.20344
 Alpha  occ. eigenvalues --   -1.17223  -1.14224  -1.11313  -1.08125  -1.05064
 Alpha  occ. eigenvalues --   -1.04085  -1.02504  -1.02115  -0.99519  -0.98722
 Alpha  occ. eigenvalues --   -0.96253  -0.94831  -0.94279  -0.91399  -0.90413
 Alpha  occ. eigenvalues --   -0.88607  -0.88008  -0.87706  -0.87068  -0.86032
 Alpha  occ. eigenvalues --   -0.85094  -0.83927  -0.83291  -0.82411  -0.81235
 Alpha  occ. eigenvalues --   -0.80782  -0.80367  -0.79413  -0.75275  -0.72312
 Alpha  occ. eigenvalues --   -0.72037  -0.70879  -0.67168  -0.55172  -0.54928
 Alpha virt. eigenvalues --   -0.20547  -0.19651  -0.16479  -0.15841  -0.15232
 Alpha virt. eigenvalues --   -0.14678  -0.13215  -0.12965  -0.12282  -0.12175
 Alpha virt. eigenvalues --   -0.11589  -0.11277  -0.10333  -0.10273  -0.09718

 Mulliken charges:
               1
     1  O   -0.957111
     2  S    3.120478
     3  N   -0.920771
     4  C    0.050334
     5  N    0.023419
     6  O   -1.076224
     7  C   -0.090403
     8  C    1.648304
     9  C    0.556462
    10  C    0.153038
    11  C    0.518309
    12  C    0.259822
    13  C    0.389842
    14  C    1.754238
    15  N   -0.758262
    16  C    0.781273
    17  C    0.832255
    18  O   -1.020669
    19  H   -0.020974
    20  H   -0.580723
    21  H   -0.445637
    22  H   -0.391719
    23  H   -0.411110
    24  H   -0.654501
    25  H   -0.544441
    26  H   -0.072225
    27  H   -0.092657
    28  H   -0.039625
    29  H   -0.111999
    30  H   -0.062429
    31  H   -0.106243
    32  H    0.203095
    33  H    0.066855
 Sum of Mulliken charges =   2.00000

 Dipole moment (field-independent basis, Debye):
    X=             -9.0342    Y=              0.4662    Z=              6.6275  Tot=             11.2142
 Quadrupole moment (field-independent basis, Debye-Ang):
   XX=             44.2354   YY=            -87.9608   ZZ=           -103.0965
   XY=              5.7604   XZ=            -24.3784   YZ=              4.6155

 Normal termination of Gaussian 16 at Mon Sep 28 09:04:06 2020.
