 Gaussian 16, Revision B.01,

 ----------------------------------------------------------------------
 #p b3lyp/6-31G(d) opt freq NoSymm scf=(MaxCycle=2000,NoVarAcc,NoIncFoc
 k) scrf=(iefpcm,read,solvent=water)
 ----------------------------------------------------------------------

 --------------------
 SM43_m2.b.10.pdb.xyz
 --------------------
 Symbolic Z-matrix:
 Charge =  1 Multiplicity = 1

 SCF Done:  E(RB3LYP) =  -1215.44160416     A.U. after   13 cycles
 SCF Done:  E(RB3LYP) =  -1215.44125046     A.U. after   10 cycles
 SCF Done:  E(RB3LYP) =  -1215.44134142     A.U. after   10 cycles
 SCF Done:  E(RB3LYP) =  -1215.44158825     A.U. after   10 cycles
 SCF Done:  E(RB3LYP) =  -1215.44160605     A.U. after    9 cycles
 SCF Done:  E(RB3LYP) =  -1215.44149770     A.U. after   10 cycles
 SCF Done:  E(RB3LYP) =  -1215.44148226     A.U. after    8 cycles
 SCF Done:  E(RB3LYP) =  -1215.44159889     A.U. after   10 cycles
 SCF Done:  E(RB3LYP) =  -1215.44160574     A.U. after    8 cycles
 SCF Done:  E(RB3LYP) =  -1215.44160648     A.U. after    8 cycles
 SCF Done:  E(RB3LYP) =  -1215.44160602     A.U. after    9 cycles
 SCF Done:  E(RB3LYP) =  -1215.44147191     A.U. after   10 cycles
 SCF Done:  E(RB3LYP) =  -1215.44149200     A.U. after    8 cycles
 SCF Done:  E(RB3LYP) =  -1215.44159935     A.U. after   10 cycles
 SCF Done:  E(RB3LYP) =  -1215.44160606     A.U. after    8 cycles
 SCF Done:  E(RB3LYP) =  -1215.44148710     A.U. after   10 cycles
 Optimization completed.
    -- Stationary point found.
 Normal termination of Gaussian 16 at Thu Sep 24 07:21:57 2020.

 --------------------------------------------------------------------
 #P Geom=AllCheck Guess=TCheck SCRF=Check GenChk RB3LYP/6-31G(d) Freq
 --------------------------------------------------------------------

 Structure from the checkpoint file:  "SM43_m2.b.10.pdb.xyz.mst.b.w.chk"
 --------------------
 SM43_m2.b.10.pdb.xyz
 --------------------
 Charge =  1 Multiplicity = 1

 SCF Done:  E(RB3LYP) =  -1215.44148710     A.U. after    1 cycles

  Exact polarizability: 326.885   6.646 207.487   2.891 -27.292 123.184
 Approx polarizability: 339.171  12.193 259.108   2.885 -39.663 147.218

                      1                      2                      3
                      A                      A                      A
 Frequencies --     29.1421                34.5640                59.7266
 Red. masses --      4.3969                 5.8742                 5.4302
 Frc consts  --      0.0022                 0.0041                 0.0114
 IR Inten    --      5.3859                 5.6077                 6.8324

                      4                      5                      6
                      A                      A                      A
 Frequencies --     80.6421                87.0051               119.1403
 Red. masses --      5.0361                 4.1893                 3.1710
 Frc consts  --      0.0193                 0.0187                 0.0265
 IR Inten    --      5.3235                 2.7563                 7.2180

                      7                      8                      9
                      A                      A                      A
 Frequencies --    136.9821               179.8105               195.6286
 Red. masses --      7.2708                 3.2322                 1.8941
 Frc consts  --      0.0804                 0.0616                 0.0427
 IR Inten    --      3.1042                 1.9903                 1.0074

                     10                     11                     12
                      A                      A                      A
 Frequencies --    210.7958               228.2530               258.5031
 Red. masses --      1.3538                 4.5932                 6.0299
 Frc consts  --      0.0354                 0.1410                 0.2374
 IR Inten    --      1.5736                 2.3447                 1.8969

                     13                     14                     15
                      A                      A                      A
 Frequencies --    264.8582               292.6955               299.4314
 Red. masses --      1.8885                 2.9913                 4.7518
 Frc consts  --      0.0781                 0.1510                 0.2510
 IR Inten    --      6.5388                18.7879                 3.1494

                     16                     17                     18
                      A                      A                      A
 Frequencies --    370.1377               380.5064               398.8752
 Red. masses --      4.6110                 6.9671                 1.7580
 Frc consts  --      0.3722                 0.5943                 0.1648
 IR Inten    --     24.7622                10.1530               123.4535

                     19                     20                     21
                      A                      A                      A
 Frequencies --    411.2436               421.7666               434.0088
 Red. masses --      2.9537                 6.8504                 3.3872
 Frc consts  --      0.2943                 0.7180                 0.3759
 IR Inten    --      0.0079                 7.0613                37.3532

                     22                     23                     24
                      A                      A                      A
 Frequencies --    459.2701               482.6217               503.3941
 Red. masses --      2.7362                 3.5262                 4.2586
 Frc consts  --      0.3400                 0.4839                 0.6358
 IR Inten    --     67.4067                12.6974                14.7199

                     25                     26                     27
                      A                      A                      A
 Frequencies --    548.7336               592.7982               630.2954
 Red. masses --      8.2558                 5.3078                 6.4466
 Frc consts  --      1.4647                 1.0990                 1.5089
 IR Inten    --     93.4986               300.2749                 0.0436

                     28                     29                     30
                      A                      A                      A
 Frequencies --    659.0703               692.8913               702.8903
 Red. masses --      8.5736                 4.6396                 1.9559
 Frc consts  --      2.1942                 1.3124                 0.5694
 IR Inten    --      7.6828                11.6332                46.4676

                     31                     32                     33
                      A                      A                      A
 Frequencies --    705.5647               777.0411               784.6564
 Red. masses --      3.6548                 1.4504                 4.6515
 Frc consts  --      1.0720                 0.5160                 1.6873
 IR Inten    --     21.9959               110.6591                33.8864

                     34                     35                     36
                      A                      A                      A
 Frequencies --    807.8753               862.2934               863.8776
 Red. masses --      2.2997                 3.4708                 1.2549
 Frc consts  --      0.8843                 1.5205                 0.5518
 IR Inten    --      7.5184                27.6569                 0.3139

                     37                     38                     39
                      A                      A                      A
 Frequencies --    899.0311               946.4990               963.8775
 Red. masses --      6.2684                 1.3880                 8.7220
 Frc consts  --      2.9851                 0.7326                 4.7743
 IR Inten    --    170.1430                 3.3235                11.8710

                     40                     41                     42
                      A                      A                      A
 Frequencies --    985.9219               990.0087              1005.5800
 Red. masses --      1.3665                 9.9029                 2.3995
 Frc consts  --      0.7826                 5.7186                 1.4296
 IR Inten    --      1.0291                72.1047                24.3395

                     43                     44                     45
                      A                      A                      A
 Frequencies --   1015.8363              1016.9354              1047.7453
 Red. masses --      1.2729                 6.0790                 2.4855
 Frc consts  --      0.7739                 3.7040                 1.6076
 IR Inten    --      0.0476                 2.4305                 3.8169

                     46                     47                     48
                      A                      A                      A
 Frequencies --   1067.9775              1083.3082              1089.8549
 Red. masses --      2.1305                 1.1581                 4.2493
 Frc consts  --      1.4317                 0.8008                 2.9738
 IR Inten    --     29.8234                 9.3188                43.3616

                     49                     50                     51
                      A                      A                      A
 Frequencies --   1113.1675              1150.1265              1155.9355
 Red. masses --      1.5948                 7.9251                 1.9071
 Frc consts  --      1.1643                 6.1766                 1.5014
 IR Inten    --     13.3685               311.5476                43.0877

                     52                     53                     54
                      A                      A                      A
 Frequencies --   1179.6406              1191.3205              1202.7445
 Red. masses --      1.3231                 1.1085                 1.5392
 Frc consts  --      1.0848                 0.9269                 1.3119
 IR Inten    --     34.1692                 1.9128                49.1634

                     55                     56                     57
                      A                      A                      A
 Frequencies --   1215.6046              1251.3572              1288.8436
 Red. masses --      1.3650                 1.6586                 4.8912
 Frc consts  --      1.1885                 1.5302                 4.7870
 IR Inten    --      8.0336                 7.2966                 9.0047

                     58                     59                     60
                      A                      A                      A
 Frequencies --   1342.3027              1366.9909              1372.0109
 Red. masses --      2.4985                 5.2902                 1.7741
 Frc consts  --      2.6523                 5.8245                 1.9677
 IR Inten    --     48.1775                96.2956                 7.0409

                     61                     62                     63
                      A                      A                      A
 Frequencies --   1395.6163              1411.9520              1447.0464
 Red. masses --      1.2894                 2.4072                 1.1823
 Frc consts  --      1.4797                 2.8275                 1.4587
 IR Inten    --     51.4695               108.1724                17.8627

                     64                     65                     66
                      A                      A                      A
 Frequencies --   1459.3353              1471.9915              1492.6053
 Red. masses --      1.1997                 1.1528                 2.4041
 Frc consts  --      1.5054                 1.4717                 3.1557
 IR Inten    --     53.4695                17.3069                60.7648

                     67                     68                     69
                      A                      A                      A
 Frequencies --   1503.5141              1511.6545              1513.4101
 Red. masses --      1.0790                 1.5066                 1.4793
 Frc consts  --      1.4371                 2.0285                 1.9962
 IR Inten    --     19.2434               287.1004               102.2082

                     70                     71                     72
                      A                      A                      A
 Frequencies --   1515.3255              1521.3252              1527.1584
 Red. masses --      1.1530                 2.5723                 1.0623
 Frc consts  --      1.5598                 3.5076                 1.4597
 IR Inten    --     66.8236               333.9095               120.8260

                     73                     74                     75
                      A                      A                      A
 Frequencies --   1557.0598              1628.4310              1650.8554
 Red. masses --      3.4769                 5.5665                 6.5986
 Frc consts  --      4.9665                 8.6970                10.5955
 IR Inten    --     12.7838               110.7792                93.8531

                     76                     77                     78
                      A                      A                      A
 Frequencies --   1665.2587              3127.1739              3129.9083
 Red. masses --      5.8153                 1.0292                 1.0306
 Frc consts  --      9.5014                 5.9300                 5.9483
 IR Inten    --     53.2818                 3.5884                 8.2996

                     79                     80                     81
                      A                      A                      A
 Frequencies --   3210.1148              3216.6516              3224.3674
 Red. masses --      1.0860                 1.0886                 1.1084
 Frc consts  --      6.5937                 6.6364                 6.7897
 IR Inten    --      1.5286                 4.9819                 1.4478

                     82                     83                     84
                      A                      A                      A
 Frequencies --   3224.8168              3226.6317              3233.1644
 Red. masses --      1.0927                 1.1084                 1.0961
 Frc consts  --      6.6950                 6.7993                 6.7509
 IR Inten    --     37.7213                 0.7991                38.8028

                     85                     86                     87
                      A                      A                      A
 Frequencies --   3235.5607              3242.1046              3245.2354
 Red. masses --      1.1104                 1.0948                 1.1091
 Frc consts  --      6.8490                 6.7800                 6.8818
 IR Inten    --      2.4050                11.9727                 1.0815

                     88                     89                     90
                      A                      A                      A
 Frequencies --   3320.0736              3346.4716              3497.2925
 Red. masses --      1.0996                 1.0774                 1.0786
 Frc consts  --      7.1413                 7.1091                 7.7727
 IR Inten    --      5.1798               325.6445               338.8715

 - Thermochemistry -
 -------------------
 Temperature   298.150 Kelvin.  Pressure   1.00000 Atm.
 Atom     1 has atomic number  8 and mass  15.99491

 Molecular mass:   268.07559 amu.
 Principal axes and moments of inertia in atomic units:
                           1         2         3
     Eigenvalues --  1525.58667********************
           X            0.99964  -0.01204  -0.02390
           Y            0.01242   0.99980   0.01583
           Z            0.02370  -0.01613   0.99959
 This molecule is an asymmetric top.
 Rotational symmetry number  1.
 Warning -- assumption of classical behavior for rotation
           may cause significant error
 Rotational temperatures (Kelvin)      0.05677     0.00733     0.00706
 Rotational constants (GHZ):           1.18298     0.15263     0.14712
 Zero-point vibrational energy     667885.4 (Joules/Mol)
                                  159.62844 (Kcal/Mol)
 Warning -- explicit consideration of  26 degrees of freedom as
           vibrations may cause significant error
 Vibrational temperatures:     41.93    49.73    85.93   116.03   125.18
          (Kelvin)            171.42   197.09   258.71   281.47   303.29
                              328.41   371.93   381.07   421.12   430.82
                              532.55   547.46   573.89   591.69   606.83
                              624.44   660.79   694.38   724.27   789.51
                              852.90   906.85   948.26   996.92  1011.30
                             1015.15  1117.99  1128.95  1162.35  1240.65
                             1242.93  1293.51  1361.80  1386.80  1418.52
                             1424.40  1446.81  1461.56  1463.14  1507.47
                             1536.58  1558.64  1568.06  1601.60  1654.78
                             1663.13  1697.24  1714.04  1730.48  1748.98
                             1800.42  1854.36  1931.27  1966.80  1974.02
                             2007.98  2031.48  2081.98  2099.66  2117.87
                             2147.53  2163.22  2174.93  2177.46  2180.22
                             2188.85  2197.24  2240.26  2342.95  2375.21
                             2395.94  4499.31  4503.24  4618.64  4628.04
                             4639.15  4639.79  4642.40  4651.80  4655.25
                             4664.67  4669.17  4776.85  4814.83  5031.82

 Zero-point correction=                           0.254384 (Hartree/Particle)
 Thermal correction to Energy=                    0.271278
 Thermal correction to Enthalpy=                  0.272222
 Thermal correction to Gibbs Free Energy=         0.208673
 Sum of electronic and zero-point Energies=          -1215.187103
 Sum of electronic and thermal Energies=             -1215.170209
 Sum of electronic and thermal Enthalpies=           -1215.169265
 Sum of electronic and thermal Free Energies=        -1215.232814

                     E (Thermal)             CV                S
                      KCal/Mol        Cal/Mol-Kelvin    Cal/Mol-Kelvin
 Total                  170.229             64.049            133.750
 Electronic               0.000              0.000              0.000
 Translational            0.889              2.981             42.657
 Rotational               0.889              2.981             33.758
 Vibrational            168.452             58.087             57.334
 Vibration     1          0.593              1.984              5.887
 Vibration     2          0.594              1.983              5.549
 Vibration     3          0.597              1.974              4.466
 Vibration     4          0.600              1.962              3.875
 Vibration     5          0.601              1.958              3.726
 Vibration     6          0.609              1.933              3.114
 Vibration     7          0.614              1.916              2.846
 Vibration     8          0.629              1.867              2.330
 Vibration     9          0.636              1.846              2.174
 Vibration    10          0.643              1.824              2.037
 Vibration    11          0.651              1.798              1.893
 Vibration    12          0.667              1.748              1.672
 Vibration    13          0.671              1.737              1.630
 Vibration    14          0.688              1.687              1.458
 Vibration    15          0.692              1.675              1.420
 Vibration    16          0.742              1.534              1.079
 Vibration    17          0.750              1.512              1.037
 Vibration    18          0.765              1.473              0.967
 Vibration    19          0.775              1.446              0.922
 Vibration    20          0.784              1.423              0.886
 Vibration    21          0.795              1.396              0.846
 Vibration    22          0.817              1.340              0.768
 Vibration    23          0.839              1.289              0.703
 Vibration    24          0.859              1.242              0.650
 Vibration    25          0.904              1.142              0.547
 Vibration    26          0.950              1.047              0.462

                           ! Non-Optimized Parameters !
 Normal termination of Gaussian 16 at Thu Sep 24 07:30:26 2020.

 ----------------------------------------------------------------------
 #p b3lyp/6-31G(d) scrf=(iefpcm,read,solvent=water) geom=allcheck guess
 =read
 ----------------------------------------------------------------------

 Structure from the checkpoint file:  "SM43_m2.b.10.pdb.xyz.mst.b.w.chk"
 --------------------
 SM43_m2.b.10.pdb.xyz
 --------------------
 Charge =  1 Multiplicity = 1

 SCF Done:  E(RB3LYP) =  -1215.44147901     A.U. after    7 cycles
 Normal termination of Gaussian 16 at Thu Sep 24 07:30:59 2020.

 -----------------------------
 #p B3LYP/6-31G* geom=allcheck
 -----------------------------

 Structure from the checkpoint file:  "SM43_m2.b.10.pdb.xyz.mst.b.w.chk"
 --------------------
 SM43_m2.b.10.pdb.xyz
 --------------------
 Charge =  1 Multiplicity = 1

 SCF Done:  E(RB3LYP) =  -1215.33800073     A.U. after   16 cycles
 Normal termination of Gaussian 16 at Thu Sep 24 07:31:40 2020.
 Gaussian 16:  ES64L-G16RevB.01 20-Dec-2017

 ----------------------------------------------------------------------
 #p mp2/aug-cc-pVDZ scf=(MaxCycle=2000,NoVarAcc,NoIncFock) maxdisk=120G
 B geom=allcheck
 ----------------------------------------------------------------------

 Structure from the checkpoint file:  "SM43_m2.b.10.pdb.xyz.mst.b.w.chk"
 --------------------
 SM43_m2.b.10.pdb.xyz
 --------------------
 Charge =  1 Multiplicity = 1

                         Standard orientation:
 ---------------------------------------------------------------------
 Center     Atomic      Atomic             Coordinates (Angstroms)
 Number     Number       Type             X           Y           Z
 ---------------------------------------------------------------------
      1          8           0       -2.760515    0.304446   -1.798572
      2         16           0       -3.041073   -0.527584   -0.647898
      3          7           0       -1.677657   -0.961075    0.144566
      4          6           0       -0.407092   -0.369474    0.036088
      5          7           0       -0.261593    0.917990   -0.192074
      6          8           0        1.118938    1.111693   -0.219274
      7          6           0        1.754819   -0.063493    0.018179
      8          6           0        3.212239   -0.041324    0.041297
      9          6           0        3.928124   -1.186465    0.427493
     10          6           0        5.319533   -1.163559    0.453030
     11          6           0        6.010578   -0.002800    0.095531
     12          6           0        5.302976    1.138484   -0.288786
     13          6           0        3.911288    1.123077   -0.316922
     14          6           0        0.822740   -1.052957    0.184861
     15          7           0       -3.879841    0.650831    0.541384
     16          6           0       -4.008591    0.060111    1.912290
     17          6           0       -3.249639    2.010156    0.523385
     18          8           0       -3.941312   -1.664000   -0.653615
     19          1           0       -1.743892   -1.865680    0.615254
     20          1           0        3.397044   -2.087264    0.713791
     21          1           0        5.865077   -2.050739    0.755298
     22          1           0        7.094811    0.011908    0.117436
     23          1           0        5.834965    2.041320   -0.568243
     24          1           0        3.361014    2.006523   -0.617425
     25          1           0        0.975206   -2.102756    0.371110
     26          1           0       -4.474689   -0.918828    1.826860
     27          1           0       -4.643621    0.729545    2.489831
     28          1           0       -3.021413   -0.010247    2.363739
     29          1           0       -3.317548    2.400137   -0.488420
     30          1           0       -2.209494    1.932187    0.831050
     31          1           0       -3.815712    2.634975    1.212044
     32          1           0       -4.829681    0.738395    0.139925
 ---------------------------------------------------------------------

 SCF Done:  E(RHF) =  -1209.87199736     A.U. after   16 cycles
 E2 =    -0.2788963002D+01 EUMP2 =    -0.12126609603628D+04

 The electronic state is 1-A.
 Alpha  occ. eigenvalues --  -92.44726 -20.77819 -20.75989 -20.75670 -15.88568
 Alpha  occ. eigenvalues --  -15.81509 -15.75433 -11.48084 -11.46588 -11.45872
 Alpha  occ. eigenvalues --  -11.44869 -11.36907 -11.36157 -11.35288 -11.34830
 Alpha  occ. eigenvalues --  -11.34364 -11.33819 -11.33653  -9.41055  -7.09586
 Alpha  occ. eigenvalues --   -7.09545  -7.09530  -1.66828  -1.62141  -1.54386
 Alpha  occ. eigenvalues --   -1.48323  -1.45081  -1.29399  -1.26292  -1.21102
 Alpha  occ. eigenvalues --   -1.17211  -1.12698  -1.12141  -1.11835  -1.07337
 Alpha  occ. eigenvalues --   -0.98973  -0.97358  -0.94025  -0.92831  -0.91535
 Alpha  occ. eigenvalues --   -0.90416  -0.88031  -0.85472  -0.84027  -0.81273
 Alpha  occ. eigenvalues --   -0.79901  -0.79055  -0.77734  -0.77510  -0.75880
 Alpha  occ. eigenvalues --   -0.75266  -0.73868  -0.72570  -0.72217  -0.71069
 Alpha  occ. eigenvalues --   -0.70670  -0.69186  -0.68790  -0.68200  -0.67408
 Alpha  occ. eigenvalues --   -0.66334  -0.65582  -0.61905  -0.61156  -0.60315
 Alpha  occ. eigenvalues --   -0.59202  -0.53625  -0.51239  -0.43554  -0.41964
 Alpha virt. eigenvalues --   -0.08036  -0.06871  -0.05843  -0.04791  -0.04352
 Alpha virt. eigenvalues --   -0.03491  -0.03293  -0.03032  -0.02183  -0.01875
 Alpha virt. eigenvalues --   -0.01708  -0.01264  -0.01113   0.00186   0.00300

 Mulliken charges:
               1
     1  O   -1.012327
     2  S    2.860575
     3  N   -0.764324
     4  C   -0.338126
     5  N   -0.174204
     6  O   -1.062255
     7  C    0.174042
     8  C    1.494801
     9  C    0.632484
    10  C    0.063470
    11  C    0.540271
    12  C    0.190186
    13  C    0.411800
    14  C    1.564295
    15  N   -0.657193
    16  C    0.820042
    17  C    0.936845
    18  O   -0.999542
    19  H   -0.057088
    20  H   -0.593941
    21  H   -0.467848
    22  H   -0.416427
    23  H   -0.429364
    24  H   -0.655651
    25  H   -0.539791
    26  H   -0.122030
    27  H   -0.137439
    28  H   -0.064418
    29  H   -0.115579
    30  H   -0.104187
    31  H   -0.121776
    32  H    0.144698
 Sum of Mulliken charges =   1.00000

 Dipole moment (field-independent basis, Debye):
    X=             -8.5230    Y=              0.1307    Z=              6.0840  Tot=             10.4725
 Quadrupole moment (field-independent basis, Debye-Ang):
   XX=            -20.8423   YY=            -96.3703   ZZ=           -110.5333
   XY=            -15.2920   XZ=            -19.8506   YZ=             -2.7192

 Normal termination of Gaussian 16 at Thu Sep 24 08:12:54 2020.
