 Gaussian 16, Revision B.01,

 ----------------------------------------------------------------------
 #p b3lyp/6-31G(d) opt freq NoSymm scf=(MaxCycle=2000,NoVarAcc,NoIncFoc
 k) scrf=(iefpcm,read,solvent=water)
 ----------------------------------------------------------------------

 -------------------
 SM43_m2.b.2.pdb.xyz
 -------------------
 Symbolic Z-matrix:
 Charge =  1 Multiplicity = 1

 SCF Done:  E(RB3LYP) =  -1215.44367024     A.U. after   13 cycles
 SCF Done:  E(RB3LYP) =  -1215.44338469     A.U. after   10 cycles
 SCF Done:  E(RB3LYP) =  -1215.44328416     A.U. after   10 cycles
 SCF Done:  E(RB3LYP) =  -1215.44365224     A.U. after   10 cycles
 SCF Done:  E(RB3LYP) =  -1215.44367099     A.U. after    9 cycles
 SCF Done:  E(RB3LYP) =  -1215.44348493     A.U. after   10 cycles
 SCF Done:  E(RB3LYP) =  -1215.44349571     A.U. after    9 cycles
 SCF Done:  E(RB3LYP) =  -1215.44366256     A.U. after   10 cycles
 SCF Done:  E(RB3LYP) =  -1215.44367086     A.U. after    9 cycles
 SCF Done:  E(RB3LYP) =  -1215.44349835     A.U. after   10 cycles
 SCF Done:  E(RB3LYP) =  -1215.44367069     A.U. after    9 cycles
 SCF Done:  E(RB3LYP) =  -1215.44350242     A.U. after   10 cycles
 SCF Done:  E(RB3LYP) =  -1215.44349946     A.U. after    7 cycles
 SCF Done:  E(RB3LYP) =  -1215.44366178     A.U. after   10 cycles
 SCF Done:  E(RB3LYP) =  -1215.44367065     A.U. after    9 cycles
 SCF Done:  E(RB3LYP) =  -1215.44349807     A.U. after   10 cycles
 Optimization completed.
    -- Stationary point found.
 Normal termination of Gaussian 16 at Thu Sep 24 07:15:58 2020.

 --------------------------------------------------------------------
 #P Geom=AllCheck Guess=TCheck SCRF=Check GenChk RB3LYP/6-31G(d) Freq
 --------------------------------------------------------------------

 Structure from the checkpoint file:  "SM43_m2.b.2.pdb.xyz.mst.b.w.chk"
 -------------------
 SM43_m2.b.2.pdb.xyz
 -------------------
 Charge =  1 Multiplicity = 1

 SCF Done:  E(RB3LYP) =  -1215.44349807     A.U. after    1 cycles

  Exact polarizability: 316.987 -18.201 208.301  -8.574 -31.712 133.059
 Approx polarizability: 338.604 -22.547 255.842 -17.407 -45.381 157.285

                      1                      2                      3
                      A                      A                      A
 Frequencies --     29.0443                41.7914                55.0977
 Red. masses --      3.8554                 5.9030                 4.5513
 Frc consts  --      0.0019                 0.0061                 0.0081
 IR Inten    --      1.0993                 9.0333                15.7105

                      4                      5                      6
                      A                      A                      A
 Frequencies --     72.0229                87.5808                93.5868
 Red. masses --      7.4414                 4.8336                 2.8267
 Frc consts  --      0.0227                 0.0218                 0.0146
 IR Inten    --      2.6400                 0.4041                 4.0405

                      7                      8                      9
                      A                      A                      A
 Frequencies --    148.2921               171.0528               214.5281
 Red. masses --      6.1049                 3.3978                 1.2494
 Frc consts  --      0.0791                 0.0586                 0.0339
 IR Inten    --      7.0771                 4.3205                 2.0608

                     10                     11                     12
                      A                      A                      A
 Frequencies --    215.6841               235.7682               254.9262
 Red. masses --      1.7241                 3.2741                 7.0986
 Frc consts  --      0.0473                 0.1072                 0.2718
 IR Inten    --      0.5805                 2.8859                 4.5558

                     13                     14                     15
                      A                      A                      A
 Frequencies --    276.7857               304.5741               311.3540
 Red. masses --      2.3459                 3.6197                 6.7653
 Frc consts  --      0.1059                 0.1978                 0.3864
 IR Inten    --      2.3787                 7.2226                 4.1170

                     16                     17                     18
                      A                      A                      A
 Frequencies --    345.9005               392.5906               409.3886
 Red. masses --      4.9458                 6.9508                 4.8179
 Frc consts  --      0.3486                 0.6312                 0.4758
 IR Inten    --      7.5891                 1.6938                 8.7627

                     19                     20                     21
                      A                      A                      A
 Frequencies --    411.2833               437.3990               461.2659
 Red. masses --      3.4365                 3.1171                 5.4060
 Frc consts  --      0.3425                 0.3514                 0.6777
 IR Inten    --      3.4128                 9.7962                18.3741

                     22                     23                     24
                      A                      A                      A
 Frequencies --    489.8040               502.3227               548.0235
 Red. masses --      5.1673                 4.3228                 1.3557
 Frc consts  --      0.7304                 0.6427                 0.2399
 IR Inten    --     41.9502                15.0657               156.4520

                     25                     26                     27
                      A                      A                      A
 Frequencies --    575.9137               586.3821               630.6395
 Red. masses --      4.1492                 8.6438                 6.4411
 Frc consts  --      0.8108                 1.7511                 1.5093
 IR Inten    --     97.2295               395.6798                 0.1350

                     28                     29                     30
                      A                      A                      A
 Frequencies --    660.9559               688.3562               703.5752
 Red. masses --      8.4338                 6.1604                 1.8433
 Frc consts  --      2.1708                 1.7198                 0.5376
 IR Inten    --      2.5328                16.8528                34.8982

                     31                     32                     33
                      A                      A                      A
 Frequencies --    706.0444               780.7384               785.7933
 Red. masses --      3.7765                 4.4284                 1.6332
 Frc consts  --      1.1092                 1.5904                 0.5942
 IR Inten    --     17.4800                17.9388                67.5161

                     34                     35                     36
                      A                      A                      A
 Frequencies --    820.5302               863.0013               870.0605
 Red. masses --      1.6252                 1.2548                 3.5506
 Frc consts  --      0.6447                 0.5506                 1.5836
 IR Inten    --     22.9397                 0.1396                36.1019

                     37                     38                     39
                      A                      A                      A
 Frequencies --    917.9391               946.3463               962.7951
 Red. masses --      5.7832                 1.3889                 9.3785
 Frc consts  --      2.8711                 0.7328                 5.1221
 IR Inten    --    105.4990                 2.6611                 6.2515

                     40                     41                     42
                      A                      A                      A
 Frequencies --    979.3598               985.3668              1012.6800
 Red. masses --     11.2894                 1.3530                 2.5866
 Frc consts  --      6.3798                 0.7740                 1.5629
 IR Inten    --     46.1613                 0.0214                26.0161

                     43                     44                     45
                      A                      A                      A
 Frequencies --   1015.7708              1016.9041              1046.1632
 Red. masses --      1.2719                 6.1071                 2.5433
 Frc consts  --      0.7732                 3.7209                 1.6400
 IR Inten    --      0.0757                 1.5745                10.0223

                     46                     47                     48
                      A                      A                      A
 Frequencies --   1058.1075              1072.6692              1082.2552
 Red. masses --      2.9954                 1.1521                 2.4933
 Frc consts  --      1.9759                 0.7810                 1.7206
 IR Inten    --     47.3814                10.1192                 3.4579

                     49                     50                     51
                      A                      A                      A
 Frequencies --   1112.0350              1145.8793              1155.9850
 Red. masses --      1.5844                 2.9026                 1.7120
 Frc consts  --      1.1544                 2.2455                 1.3479
 IR Inten    --     14.4081               207.4485                37.2604

                     52                     53                     54
                      A                      A                      A
 Frequencies --   1179.2698              1190.2943              1205.9614
 Red. masses --      1.9717                 1.0970                 1.2175
 Frc consts  --      1.6156                 0.9157                 1.0433
 IR Inten    --    188.7797                 0.0143                 7.0514

                     55                     56                     57
                      A                      A                      A
 Frequencies --   1218.7867              1254.8050              1290.9682
 Red. masses --      1.8949                 1.6320                 4.6883
 Frc consts  --      1.6584                 1.5140                 4.6036
 IR Inten    --      3.2279                 3.6553                11.2191

                     58                     59                     60
                      A                      A                      A
 Frequencies --   1353.2818              1360.1261              1372.2184
 Red. masses --      3.3154                 3.0739                 1.8181
 Frc consts  --      3.5773                 3.3504                 2.0170
 IR Inten    --     30.5171                92.1089                 3.6658

                     61                     62                     63
                      A                      A                      A
 Frequencies --   1380.4140              1421.6106              1450.3416
 Red. masses --      1.2540                 2.1193                 1.2445
 Frc consts  --      1.4079                 2.5235                 1.5424
 IR Inten    --     15.8009               331.6444                55.7966

                     64                     65                     66
                      A                      A                      A
 Frequencies --   1459.0621              1474.7895              1480.6055
 Red. masses --      1.2157                 1.1652                 3.9576
 Frc consts  --      1.5249                 1.4932                 5.1117
 IR Inten    --     47.1571                 2.4167               241.6460

                     67                     68                     69
                      A                      A                      A
 Frequencies --   1502.4681              1503.1778              1504.9938
 Red. masses --      1.5481                 1.5262                 1.0659
 Frc consts  --      2.0590                 2.0318                 1.4225
 IR Inten    --     92.7440               120.2808                33.0369

                     70                     71                     72
                      A                      A                      A
 Frequencies --   1509.1170              1520.6712              1526.4058
 Red. masses --      1.0498                 2.5647                 1.0529
 Frc consts  --      1.4086                 3.4943                 1.4453
 IR Inten    --     45.2440                71.8042                58.6278

                     73                     74                     75
                      A                      A                      A
 Frequencies --   1555.8871              1626.0839              1649.5979
 Red. masses --      3.1879                 5.5383                 6.5012
 Frc consts  --      4.5469                 8.6280                10.4232
 IR Inten    --     38.5122               152.1314                93.4942

                     76                     77                     78
                      A                      A                      A
 Frequencies --   1665.0007              3126.7326              3127.7568
 Red. masses --      5.7682                 1.0297                 1.0304
 Frc consts  --      9.4215                 5.9311                 5.9391
 IR Inten    --     46.8636                 3.9017                 5.7716

                     79                     80                     81
                      A                      A                      A
 Frequencies --   3209.7057              3216.4212              3219.5939
 Red. masses --      1.0859                 1.0885                 1.1086
 Frc consts  --      6.5916                 6.6348                 6.7709
 IR Inten    --      1.3553                 5.8927                 1.3599

                     82                     83                     84
                      A                      A                      A
 Frequencies --   3221.4512              3224.3195              3232.2019
 Red. masses --      1.1088                 1.0925                 1.0957
 Frc consts  --      6.7794                 6.6920                 6.7442
 IR Inten    --      3.2931                35.7159                37.3218

                     85                     86                     87
                      A                      A                      A
 Frequencies --   3236.9444              3239.7568              3243.7035
 Red. masses --      1.1098                 1.0953                 1.1089
 Frc consts  --      6.8511                 6.7733                 6.8741
 IR Inten    --      2.4533                12.9495                 1.1519

                     88                     89                     90
                      A                      A                      A
 Frequencies --   3339.7560              3340.7967              3496.9071
 Red. masses --      1.0793                 1.0989                 1.0771
 Frc consts  --      7.0931                 7.2259                 7.7599
 IR Inten    --    222.9036                 7.9761               312.3440

 - Thermochemistry -
 -------------------
 Temperature   298.150 Kelvin.  Pressure   1.00000 Atm.
 Atom     1 has atomic number  8 and mass  15.99491

 Molecular mass:   268.07559 amu.
 Principal axes and moments of inertia in atomic units:
                           1         2         3
     Eigenvalues --  1896.62649********************
           X            0.99907  -0.01231  -0.04125
           Y            0.01836   0.98856   0.14972
           Z            0.03893  -0.15033   0.98787
 This molecule is an asymmetric top.
 Rotational symmetry number  1.
 Warning -- assumption of classical behavior for rotation
           may cause significant error
 Rotational temperatures (Kelvin)      0.04567     0.00795     0.00755
 Rotational constants (GHZ):           0.95155     0.16568     0.15731
 Zero-point vibrational energy     668857.8 (Joules/Mol)
                                  159.86086 (Kcal/Mol)
 Warning -- explicit consideration of  26 degrees of freedom as
           vibrations may cause significant error
 Vibrational temperatures:     41.79    60.13    79.27   103.62   126.01
          (Kelvin)            134.65   213.36   246.11   308.66   310.32
                              339.22   366.78   398.23   438.21   447.97
                              497.67   564.85   589.02   591.74   629.32
                              663.66   704.72   722.73   788.48   828.61
                              843.67   907.35   950.97   990.39  1012.29
                             1015.84  1123.31  1130.58  1180.56  1241.67
                             1251.82  1320.71  1361.58  1385.25  1409.08
                             1417.72  1457.02  1461.47  1463.10  1505.20
                             1522.38  1543.33  1557.12  1599.97  1648.66
                             1663.20  1696.71  1712.57  1735.11  1753.56
                             1805.38  1857.42  1947.07  1956.92  1974.32
                             1986.11  2045.38  2086.72  2099.26  2121.89
                             2130.26  2161.72  2162.74  2165.35  2171.28
                             2187.91  2196.16  2238.57  2339.57  2373.40
                             2395.56  4498.67  4500.14  4618.05  4627.71
                             4632.28  4634.95  4639.08  4650.42  4657.24
                             4661.29  4666.97  4805.16  4806.66  5031.27

 Zero-point correction=                           0.254754 (Hartree/Particle)
 Thermal correction to Energy=                    0.271492
 Thermal correction to Enthalpy=                  0.272436
 Thermal correction to Gibbs Free Energy=         0.209068
 Sum of electronic and zero-point Energies=          -1215.188744
 Sum of electronic and thermal Energies=             -1215.172006
 Sum of electronic and thermal Enthalpies=           -1215.171062
 Sum of electronic and thermal Free Energies=        -1215.234430

                     E (Thermal)             CV                S
                      KCal/Mol        Cal/Mol-Kelvin    Cal/Mol-Kelvin
 Total                  170.364             63.598            133.369
 Electronic               0.000              0.000              0.000
 Translational            0.889              2.981             42.657
 Rotational               0.889              2.981             33.827
 Vibrational            168.586             57.636             56.885
 Vibration     1          0.593              1.984              5.894
 Vibration     2          0.594              1.980              5.172
 Vibration     3          0.596              1.976              4.625
 Vibration     4          0.598              1.967              4.097
 Vibration     5          0.601              1.958              3.713
 Vibration     6          0.603              1.954              3.584
 Vibration     7          0.618              1.905              2.694
 Vibration     8          0.626              1.878              2.424
 Vibration     9          0.644              1.819              2.005
 Vibration    10          0.645              1.817              1.995
 Vibration    11          0.655              1.786              1.835
 Vibration    12          0.665              1.754              1.696
 Vibration    13          0.678              1.716              1.553
 Vibration    14          0.695              1.665              1.392
 Vibration    15          0.700              1.652              1.355
 Vibration    16          0.724              1.584              1.185
 Vibration    17          0.760              1.486              0.990
 Vibration    18          0.774              1.450              0.929
 Vibration    19          0.775              1.446              0.922
 Vibration    20          0.798              1.389              0.835
 Vibration    21          0.819              1.336              0.762
 Vibration    22          0.846              1.273              0.684
 Vibration    23          0.858              1.245              0.652
 Vibration    24          0.903              1.144              0.548
 Vibration    25          0.932              1.083              0.493
 Vibration    26          0.943              1.061              0.474

 Optimization completed.
    -- Stationary point found.
 Normal termination of Gaussian 16 at Thu Sep 24 07:25:12 2020.

 ----------------------------------------------------------------------
 #p b3lyp/6-31G(d) scrf=(iefpcm,read,solvent=water) geom=allcheck guess
 =read
 ----------------------------------------------------------------------

 Structure from the checkpoint file:  "SM43_m2.b.2.pdb.xyz.mst.b.w.chk"
 -------------------
 SM43_m2.b.2.pdb.xyz
 -------------------
 Charge =  1 Multiplicity = 1

 SCF Done:  E(RB3LYP) =  -1215.44295599     A.U. after    8 cycles
 Normal termination of Gaussian 16 at Thu Sep 24 07:25:52 2020.

 -----------------------------
 #p B3LYP/6-31G* geom=allcheck
 -----------------------------

 Structure from the checkpoint file:  "SM43_m2.b.2.pdb.xyz.mst.b.w.chk"
 -------------------
 SM43_m2.b.2.pdb.xyz
 -------------------
 Charge =  1 Multiplicity = 1

 SCF Done:  E(RB3LYP) =  -1215.33582723     A.U. after   16 cycles
 Normal termination of Gaussian 16 at Thu Sep 24 07:26:36 2020.
 Gaussian 16:  ES64L-G16RevB.01 20-Dec-2017

 ----------------------------------------------------------------------
 #p mp2/aug-cc-pVDZ scf=(MaxCycle=2000,NoVarAcc,NoIncFock) maxdisk=120G
 B geom=allcheck
 ----------------------------------------------------------------------

 Structure from the checkpoint file:  "SM43_m2.b.2.pdb.xyz.mst.b.w.chk"
 -------------------
 SM43_m2.b.2.pdb.xyz
 -------------------
 Charge =  1 Multiplicity = 1

                         Standard orientation:
 ---------------------------------------------------------------------
 Center     Atomic      Atomic             Coordinates (Angstroms)
 Number     Number       Type             X           Y           Z
 ---------------------------------------------------------------------
      1          8           0        4.071555   -0.059055   -1.298943
      2         16           0        2.790590    0.272897   -0.710742
      3          7           0        1.785777   -1.006466   -0.893152
      4          6           0        0.433540   -0.999160   -0.496693
      5          7           0       -0.070508   -2.113228   -0.005903
      6          8           0       -1.418552   -1.820546    0.198815
      7          6           0       -1.671945   -0.535749   -0.156299
      8          6           0       -3.037319   -0.048990   -0.002543
      9          6           0       -3.338931    1.292882   -0.289899
     10          6           0       -4.641874    1.761307   -0.147592
     11          6           0       -5.655434    0.900097    0.281834
     12          6           0       -5.359818   -0.434375    0.569719
     13          6           0       -4.058938   -0.910085    0.429449
     14          6           0       -0.518048    0.041035   -0.617281
     15          7           0        3.147488    0.357901    1.135376
     16          6           0        4.088099   -0.722807    1.561181
     17          6           0        3.638576    1.728089    1.495856
     18          8           0        2.073616    1.506907   -0.960214
     19          1           0        2.259188   -1.914891   -0.890692
     20          1           0       -2.554995    1.965526   -0.620287
     21          1           0       -4.866332    2.798550   -0.370837
     22          1           0       -6.669972    1.267791    0.391658
     23          1           0       -6.143297   -1.106221    0.902720
     24          1           0       -3.828789   -1.945520    0.649914
     25          1           0       -0.359882    1.036746   -0.992341
     26          1           0        3.656934   -1.695496    1.335316
     27          1           0        4.225708   -0.623352    2.636586
     28          1           0        5.031087   -0.583967    1.038449
     29          1           0        2.907081    2.456462    1.157072
     30          1           0        4.605517    1.890068    1.023084
     31          1           0        3.737525    1.756763    2.579742
     32          1           0        2.231083    0.211832    1.593579
 ---------------------------------------------------------------------

 SCF Done:  E(RHF) =  -1209.87137438     A.U. after   17 cycles
 E2 =    -0.2789499916D+01 EUMP2 =    -0.12126608742918D+04

 The electronic state is 1-A.
 Alpha  occ. eigenvalues --  -92.45253 -20.78000 -20.76714 -20.76663 -15.89517
 Alpha  occ. eigenvalues --  -15.81995 -15.75942 -11.47951 -11.47072 -11.46666
 Alpha  occ. eigenvalues --  -11.45864 -11.36821 -11.36295 -11.35430 -11.34951
 Alpha  occ. eigenvalues --  -11.34510 -11.33989 -11.33789  -9.41636  -7.10166
 Alpha  occ. eigenvalues --   -7.10118  -7.10101  -1.67649  -1.62301  -1.55307
 Alpha  occ. eigenvalues --   -1.49304  -1.45480  -1.29502  -1.26426  -1.21078
 Alpha  occ. eigenvalues --   -1.18105  -1.13188  -1.12526  -1.12076  -1.06424
 Alpha  occ. eigenvalues --   -0.99380  -0.98892  -0.95432  -0.93424  -0.91538
 Alpha  occ. eigenvalues --   -0.90567  -0.88501  -0.85521  -0.84444  -0.82292
 Alpha  occ. eigenvalues --   -0.79675  -0.79548  -0.78361  -0.77984  -0.76468
 Alpha  occ. eigenvalues --   -0.75034  -0.74844  -0.73902  -0.72460  -0.71304
 Alpha  occ. eigenvalues --   -0.70895  -0.69487  -0.69144  -0.68671  -0.67625
 Alpha  occ. eigenvalues --   -0.67175  -0.66639  -0.62240  -0.61312  -0.60463
 Alpha  occ. eigenvalues --   -0.59344  -0.53868  -0.51321  -0.43706  -0.42026
 Alpha virt. eigenvalues --   -0.08452  -0.06295  -0.06024  -0.05452  -0.04777
 Alpha virt. eigenvalues --   -0.03759  -0.03420  -0.02992  -0.02641  -0.02285
 Alpha virt. eigenvalues --   -0.02174  -0.01615  -0.00960  -0.00191   0.00087

 Mulliken charges:
               1
     1  O   -1.036995
     2  S    3.060288
     3  N   -0.808530
     4  C   -0.311142
     5  N   -0.241186
     6  O   -1.051391
     7  C    0.037843
     8  C    1.511846
     9  C    0.575589
    10  C    0.096414
    11  C    0.530815
    12  C    0.243086
    13  C    0.336993
    14  C    1.858911
    15  N   -0.792491
    16  C    0.791868
    17  C    0.800684
    18  O   -1.058974
    19  H   -0.048101
    20  H   -0.585932
    21  H   -0.474170
    22  H   -0.417955
    23  H   -0.429151
    24  H   -0.660500
    25  H   -0.579562
    26  H   -0.183776
    27  H   -0.093939
    28  H   -0.027396
    29  H   -0.087806
    30  H   -0.060311
    31  H   -0.109058
    32  H    0.214029
 Sum of Mulliken charges =   1.00000

 Dipole moment (field-independent basis, Debye):
    X=              8.6339    Y=              2.0696    Z=              5.9760  Tot=             10.7023
 Quadrupole moment (field-independent basis, Debye-Ang):
   XX=            -34.7237   YY=           -102.8822   ZZ=           -103.9049
   XY=             -3.7933   XZ=             22.2450   YZ=              3.6356

 Normal termination of Gaussian 16 at Thu Sep 24 08:25:34 2020.
