 Gaussian 16, Revision B.01,

 ----------------------------------------------------------------------
 #p b3lyp/6-31G(d) opt freq NoSymm scf=(MaxCycle=2000,NoVarAcc,NoIncFoc
 k) scrf=(iefpcm,read,solvent=water)
 ----------------------------------------------------------------------

 -------------------
 SM43_m3.b.2.pdb.xyz
 -------------------
 Symbolic Z-matrix:
 Charge =  2 Multiplicity = 1

 SCF Done:  E(RB3LYP) =  -1215.87337465     A.U. after   13 cycles
 SCF Done:  E(RB3LYP) =  -1215.87337964     A.U. after    8 cycles
 SCF Done:  E(RB3LYP) =  -1215.87337682     A.U. after    7 cycles
 SCF Done:  E(RB3LYP) =  -1215.87338305     A.U. after    7 cycles
 SCF Done:  E(RB3LYP) =  -1215.87337969     A.U. after    7 cycles
 Optimization completed.
    -- Stationary point found.
 Normal termination of Gaussian 16 at Mon Sep 28 08:17:01 2020.

 --------------------------------------------------------------------
 #P Geom=AllCheck Guess=TCheck SCRF=Check GenChk RB3LYP/6-31G(d) Freq
 --------------------------------------------------------------------

 Structure from the checkpoint file:  "SM43_m3.b.2.pdb.xyz.mst.b.w.chk"
 -------------------
 SM43_m3.b.2.pdb.xyz
 -------------------
 Charge =  2 Multiplicity = 1

 SCF Done:  E(RB3LYP) =  -1215.87337969     A.U. after    1 cycles

  Exact polarizability: 332.572 -23.372 218.400  -4.670 -20.405 118.308
 Approx polarizability: 351.117 -27.696 263.266 -11.920 -29.433 138.086

                      1                      2                      3
                      A                      A                      A
 Frequencies --     33.8243                45.4813                67.0048
 Red. masses --      4.5432                 4.5220                 5.2616
 Frc consts  --      0.0031                 0.0055                 0.0139
 IR Inten    --      2.5682                 3.8599                 5.6319

                      4                      5                      6
                      A                      A                      A
 Frequencies --     78.0561                94.0706               101.6888
 Red. masses --      7.1339                 4.7202                 2.4628
 Frc consts  --      0.0256                 0.0246                 0.0150
 IR Inten    --      5.7093                 2.0691                 1.4282

                      7                      8                      9
                      A                      A                      A
 Frequencies --    162.6887               178.5929               196.6318
 Red. masses --      6.5541                 2.0162                 2.1786
 Frc consts  --      0.1022                 0.0379                 0.0496
 IR Inten    --      5.6502                 2.5760                 0.3190

                     10                     11                     12
                      A                      A                      A
 Frequencies --    233.2765               251.4323               255.8250
 Red. masses --      4.0225                 5.0690                 1.2111
 Frc consts  --      0.1290                 0.1888                 0.0467
 IR Inten    --      3.4808                 4.4371                 1.7507

                     13                     14                     15
                      A                      A                      A
 Frequencies --    262.3798               293.9865               306.3090
 Red. masses --      3.0125                 3.5814                 6.1807
 Frc consts  --      0.1222                 0.1824                 0.3417
 IR Inten    --      6.4954                12.6507                12.9894

                     16                     17                     18
                      A                      A                      A
 Frequencies --    315.6832               357.8402               399.5761
 Red. masses --      4.5778                 5.3624                 4.7509
 Frc consts  --      0.2688                 0.4046                 0.4469
 IR Inten    --     16.3627                16.5458                 6.0438

                     19                     20                     21
                      A                      A                      A
 Frequencies --    410.7329               426.2909               441.5151
 Red. masses --      2.9394                 3.3249                 1.8366
 Frc consts  --      0.2922                 0.3560                 0.2109
 IR Inten    --      0.5054                34.7680               139.7859

                     22                     23                     24
                      A                      A                      A
 Frequencies --    460.7206               462.8526               493.9432
 Red. masses --      1.9010                 1.9169                 3.6505
 Frc consts  --      0.2377                 0.2420                 0.5248
 IR Inten    --     23.7459               199.8856                26.6068

                     25                     26                     27
                      A                      A                      A
 Frequencies --    499.9735               573.3448               592.0126
 Red. masses --      2.6299                 6.4822                 6.4345
 Frc consts  --      0.3873                 1.2555                 1.3287
 IR Inten    --     40.0765               121.6432               276.8767

                     28                     29                     30
                      A                      A                      A
 Frequencies --    628.8587               651.9370               689.2437
 Red. masses --      6.4570                 5.4528                 6.6718
 Frc consts  --      1.5045                 1.3655                 1.8674
 IR Inten    --      0.4065                22.1481                17.7923

                     31                     32                     33
                      A                      A                      A
 Frequencies --    699.5582               708.6379               774.3911
 Red. masses --      2.3412                 2.4445                 5.6702
 Frc consts  --      0.6751                 0.7233                 2.0034
 IR Inten    --     29.4916                19.6275                40.2267

                     34                     35                     36
                      A                      A                      A
 Frequencies --    790.2437               841.2295               862.6740
 Red. masses --      1.7695                 1.4708                 3.6560
 Frc consts  --      0.6511                 0.6132                 1.6031
 IR Inten    --     59.5538                40.2010                99.2720

                     37                     38                     39
                      A                      A                      A
 Frequencies --    863.4739               895.0113               952.3120
 Red. masses --      1.2524                 6.0506                 7.6510
 Frc consts  --      0.5501                 2.8557                 4.0881
 IR Inten    --      0.1059               261.5465                28.5576

                     40                     41                     42
                      A                      A                      A
 Frequencies --    960.0443               991.6142              1001.8798
 Red. masses --      1.3715                 1.3547                 2.8333
 Frc consts  --      0.7448                 0.7848                 1.6756
 IR Inten    --      2.5374                 0.0185                30.2237

                     43                     44                     45
                      A                      A                      A
 Frequencies --   1016.8551              1023.3167              1041.8814
 Red. masses --      6.0146                 1.2928                 4.7806
 Frc consts  --      3.6642                 0.7976                 3.0575
 IR Inten    --      6.2682                 0.0042                20.1483

                     46                     47                     48
                      A                      A                      A
 Frequencies --   1057.5792              1072.8268              1079.1561
 Red. masses --      2.9184                 1.8454                 1.1510
 Frc consts  --      1.9232                 1.2514                 0.7897
 IR Inten    --     14.2751                59.5898                10.4252

                     49                     50                     51
                      A                      A                      A
 Frequencies --   1116.9874              1146.2667              1157.1072
 Red. masses --      1.6067                 2.7587                 1.7063
 Frc consts  --      1.1811                 2.1356                 1.3461
 IR Inten    --     26.9046               216.8181                39.0815

                     52                     53                     54
                      A                      A                      A
 Frequencies --   1162.5259              1178.4871              1194.2194
 Red. masses --      3.2397                 2.4530                 1.0919
 Frc consts  --      2.5797                 2.0073                 0.9175
 IR Inten    --     88.7348               133.5867                 0.3811

                     55                     56                     57
                      A                      A                      A
 Frequencies --   1211.1705              1245.0597              1254.5938
 Red. masses --      1.1403                 1.8085                 1.6327
 Frc consts  --      0.9856                 1.6517                 1.5141
 IR Inten    --     24.1706                59.8860                 1.9644

                     58                     59                     60
                      A                      A                      A
 Frequencies --   1269.5719              1348.8652              1365.8661
 Red. masses --      2.9030                 2.0405                 1.6110
 Frc consts  --      2.7569                 2.1874                 1.7707
 IR Inten    --      9.8483                10.8291                54.7794

                     61                     62                     63
                      A                      A                      A
 Frequencies --   1374.2744              1378.4489              1409.2925
 Red. masses --      2.5741                 1.6334                 2.7952
 Frc consts  --      2.8644                 1.8286                 3.2709
 IR Inten    --      6.1082                 8.4539               121.8911

                     64                     65                     66
                      A                      A                      A
 Frequencies --   1443.4927              1456.5715              1465.3133
 Red. masses --      1.4212                 1.6622                 1.1693
 Frc consts  --      1.7447                 2.0777                 1.4792
 IR Inten    --    357.5313               444.7411                12.9399

                     67                     68                     69
                      A                      A                      A
 Frequencies --   1471.5623              1493.4247              1502.4712
 Red. masses --      1.1996                 2.3094                 1.0455
 Frc consts  --      1.5305                 3.0347                 1.3906
 IR Inten    --     58.3630                20.3602                 0.9855

                     70                     71                     72
                      A                      A                      A
 Frequencies --   1511.9064              1513.4725              1516.7910
 Red. masses --      1.0442                 1.0564                 1.0454
 Frc consts  --      1.4063                 1.4257                 1.4170
 IR Inten    --     22.1167                30.6238                52.5249

                     73                     74                     75
                      A                      A                      A
 Frequencies --   1519.3274              1540.4950              1594.3846
 Red. masses --      2.7086                 2.5280                 5.1442
 Frc consts  --      3.6838                 3.5346                 7.7047
 IR Inten    --    663.0797               158.6600                38.4551

                     76                     77                     78
                      A                      A                      A
 Frequencies --   1637.2851              1648.0172              1660.0017
 Red. masses --      5.0291                 5.7580                 5.4531
 Frc consts  --      7.9430                 9.2139                 8.8534
 IR Inten    --    256.8165               662.5366                56.7917

                     79                     80                     81
                      A                      A                      A
 Frequencies --   3131.6902              3133.6225              3217.7303
 Red. masses --      1.0291                 1.0295                 1.0866
 Frc consts  --      5.9467                 5.9559                 6.6283
 IR Inten    --      2.7425                 2.4949                 0.0877

                     82                     83                     84
                      A                      A                      A
 Frequencies --   3225.8773              3230.4685              3230.9018
 Red. masses --      1.0888                 1.1091                 1.1088
 Frc consts  --      6.6759                 6.8197                 6.8195
 IR Inten    --      6.0498                 2.5794                 1.1000

                     85                     86                     87
                      A                      A                      A
 Frequencies --   3233.0131              3239.8930              3241.9379
 Red. masses --      1.0920                 1.0946                 1.1104
 Frc consts  --      6.7249                 6.7694                 6.8762
 IR Inten    --     24.3811                24.9265                 1.5046

                     88                     89                     90
                      A                      A                      A
 Frequencies --   3244.1862              3244.7168              3349.3224
 Red. masses --      1.0973                 1.1098                 1.0797
 Frc consts  --      6.8044                 6.8841                 7.1361
 IR Inten    --     14.5492                 0.6672               251.7586

                     91                     92                     93
                      A                      A                      A
 Frequencies --   3355.8648              3467.2633              3533.2149
 Red. masses --      1.0991                 1.0787                 1.0880
 Frc consts  --      7.2931                 7.6404                 8.0024
 IR Inten    --     30.5149               404.0300               887.1437

 - Thermochemistry -
 -------------------
 Temperature   298.150 Kelvin.  Pressure   1.00000 Atm.
 Atom     1 has atomic number  8 and mass  15.99491

 Molecular mass:   269.08341 amu.
 Principal axes and moments of inertia in atomic units:
                           1         2         3
     Eigenvalues --  1955.61285********************
           X            0.99866  -0.02892  -0.04283
           Y            0.02940   0.99951   0.01072
           Z            0.04249  -0.01197   0.99903
 This molecule is an asymmetric top.
 Rotational symmetry number  1.
 Warning -- assumption of classical behavior for rotation
           may cause significant error
 Rotational temperatures (Kelvin)      0.04429     0.00801     0.00746
 Rotational constants (GHZ):           0.92285     0.16692     0.15550
 Zero-point vibrational energy     702599.2 (Joules/Mol)
                                  167.92524 (Kcal/Mol)
 Warning -- explicit consideration of  27 degrees of freedom as
           vibrations may cause significant error
 Vibrational temperatures:     48.67    65.44    96.40   112.31   135.35
          (Kelvin)            146.31   234.07   256.96   282.91   335.63
                              361.75   368.08   377.51   422.98   440.71
                              454.20   514.85   574.90   590.95   613.34
                              635.24   662.87   665.94   710.67   719.35
                              824.92   851.77   904.79   937.99   991.67
                             1006.51  1019.57  1114.18  1136.98  1210.34
                             1241.20  1242.35  1287.72  1370.16  1381.29
                             1426.71  1441.48  1463.03  1472.32  1499.03
                             1521.62  1543.56  1552.66  1607.10  1649.22
                             1664.82  1672.62  1695.58  1718.22  1742.60
                             1791.36  1805.08  1826.63  1940.72  1965.18
                             1977.27  1983.28  2027.66  2076.86  2095.68
                             2108.26  2117.25  2148.71  2161.72  2175.30
                             2177.55  2182.32  2185.97  2216.43  2293.96
                             2355.69  2371.13  2388.37  4505.80  4508.58
                             4629.60  4641.32  4647.92  4648.55  4651.58
                             4661.48  4664.43  4667.66  4668.42  4818.93
                             4828.34  4988.62  5083.51

 Zero-point correction=                           0.267606 (Hartree/Particle)
 Thermal correction to Energy=                    0.284651
 Thermal correction to Enthalpy=                  0.285595
 Thermal correction to Gibbs Free Energy=         0.222271
 Sum of electronic and zero-point Energies=          -1215.605774
 Sum of electronic and thermal Energies=             -1215.588729
 Sum of electronic and thermal Enthalpies=           -1215.587785
 Sum of electronic and thermal Free Energies=        -1215.651109

                     E (Thermal)             CV                S
                      KCal/Mol        Cal/Mol-Kelvin    Cal/Mol-Kelvin
 Total                  178.621             65.236            133.277
 Electronic               0.000              0.000              0.000
 Translational            0.889              2.981             42.669
 Rotational               0.889              2.981             33.861
 Vibrational            176.843             59.274             56.747
 Vibration     1          0.594              1.983              5.591
 Vibration     2          0.595              1.979              5.005
 Vibration     3          0.598              1.970              4.239
 Vibration     4          0.599              1.964              3.939
 Vibration     5          0.603              1.953              3.574
 Vibration     6          0.604              1.948              3.422
 Vibration     7          0.623              1.888              2.518
 Vibration     8          0.629              1.869              2.343
 Vibration     9          0.636              1.845              2.164
 Vibration    10          0.654              1.790              1.854
 Vibration    11          0.663              1.760              1.721
 Vibration    12          0.666              1.753              1.690
 Vibration    13          0.670              1.742              1.646
 Vibration    14          0.689              1.685              1.451
 Vibration    15          0.697              1.662              1.382
 Vibration    16          0.703              1.644              1.332
 Vibration    17          0.733              1.559              1.131
 Vibration    18          0.766              1.471              0.964
 Vibration    19          0.775              1.447              0.924
 Vibration    20          0.788              1.413              0.871
 Vibration    21          0.801              1.380              0.822
 Vibration    22          0.819              1.337              0.764
 Vibration    23          0.820              1.332              0.758
 Vibration    24          0.850              1.263              0.673
 Vibration    25          0.855              1.250              0.658
 Vibration    26          0.930              1.089              0.498
 Vibration    27          0.949              1.049              0.464

 Optimization completed.
    -- Stationary point found.
 Normal termination of Gaussian 16 at Mon Sep 28 08:26:46 2020.

 ----------------------------------------------------------------------
 #p b3lyp/6-31G(d) scrf=(iefpcm,read,solvent=water) geom=allcheck guess
 =read
 ----------------------------------------------------------------------

 Structure from the checkpoint file:  "SM43_m3.b.2.pdb.xyz.mst.b.w.chk"
 -------------------
 SM43_m3.b.2.pdb.xyz
 -------------------
 Charge =  2 Multiplicity = 1

 SCF Done:  E(RB3LYP) =  -1215.87317603     A.U. after    7 cycles
 Normal termination of Gaussian 16 at Mon Sep 28 08:27:24 2020.

 -----------------------------
 #p B3LYP/6-31G* geom=allcheck
 -----------------------------

 Structure from the checkpoint file:  "SM43_m3.b.2.pdb.xyz.mst.b.w.chk"
 -------------------
 SM43_m3.b.2.pdb.xyz
 -------------------
 Charge =  2 Multiplicity = 1

 SCF Done:  E(RB3LYP) =  -1215.56938944     A.U. after   16 cycles
 Normal termination of Gaussian 16 at Mon Sep 28 08:28:11 2020.
 Gaussian 16:  ES64L-G16RevB.01 20-Dec-2017

 ----------------------------------------------------------------------
 #p mp2/aug-cc-pVDZ scf=(MaxCycle=2000,NoVarAcc,NoIncFock) maxdisk=120G
 B geom=allcheck
 ----------------------------------------------------------------------

 Structure from the checkpoint file:  "SM43_m3.b.2.pdb.xyz.mst.b.w.chk"
 -------------------
 SM43_m3.b.2.pdb.xyz
 -------------------
 Charge =  2 Multiplicity = 1

                         Standard orientation:
 ---------------------------------------------------------------------
 Center     Atomic      Atomic             Coordinates (Angstroms)
 Number     Number       Type             X           Y           Z
 ---------------------------------------------------------------------
      1          8           0        4.033770   -0.314911   -1.275973
      2         16           0        2.789623    0.159954   -0.718799
      3          7           0        1.791460   -1.147695   -0.524865
      4          6           0        0.435937   -1.084028   -0.288652
      5          7           0       -0.225320   -2.172812    0.089306
      6          8           0       -1.554857   -1.896840    0.212273
      7          6           0       -1.702230   -0.576453   -0.065970
      8          6           0       -3.038926   -0.025091    0.018501
      9          6           0       -3.240869    1.332390   -0.286690
     10          6           0       -4.518068    1.875492   -0.208148
     11          6           0       -5.597695    1.073966    0.173761
     12          6           0       -5.399647   -0.275845    0.477183
     13          6           0       -4.126496   -0.829482    0.400958
     14          6           0       -0.481037   -0.025153   -0.386925
     15          7           0        3.191594    0.609789    1.038006
     16          6           0        4.135591   -0.381838    1.646658
     17          6           0        3.705253    2.022437    1.099391
     18          8           0        2.030013    1.288133   -1.208441
     19          1           0        2.264064   -2.056412   -0.472574
     20          1           0       -2.404293    1.954351   -0.583154
     21          1           0       -4.671905    2.922096   -0.444469
     22          1           0       -6.592661    1.500983    0.235043
     23          1           0       -6.237563   -0.896140    0.773711
     24          1           0       -3.970133   -1.875092    0.636966
     25          1           0       -0.264214    0.988994   -0.668955
     26          1           0        3.684926   -1.371353    1.622618
     27          1           0        4.297518   -0.073437    2.677478
     28          1           0        5.065626   -0.361399    1.084516
     29          1           0        2.979367    2.673927    0.620125
     30          1           0        4.672278    2.067145    0.602726
     31          1           0        3.807151    2.271635    2.153874
     32          1           0        2.287614    0.575108    1.543651
     33          1           0        0.041836   -3.154085    0.198838
 ---------------------------------------------------------------------

 SCF Done:  E(RHF) =  -1210.11176924     A.U. after   16 cycles
 E2 =    -0.2765915586D+01 EUMP2 =    -0.12128776848298D+04

 The electronic state is 1-A.
 Alpha  occ. eigenvalues --  -92.58502 -20.97418 -20.89566 -20.89335 -16.01748
 Alpha  occ. eigenvalues --  -15.98941 -15.97418 -11.69561 -11.64234 -11.57963
 Alpha  occ. eigenvalues --  -11.57090 -11.53490 -11.49179 -11.48223 -11.47831
 Alpha  occ. eigenvalues --  -11.46721 -11.45329 -11.45182  -9.54847  -7.23371
 Alpha  occ. eigenvalues --   -7.23351  -7.23308  -1.83733  -1.80655  -1.68178
 Alpha  occ. eigenvalues --   -1.62555  -1.61052  -1.50257  -1.41778  -1.37495
 Alpha  occ. eigenvalues --   -1.29045  -1.26939  -1.26512  -1.24265  -1.20534
 Alpha  occ. eigenvalues --   -1.16192  -1.15285  -1.11858  -1.09221  -1.05501
 Alpha  occ. eigenvalues --   -1.03850  -1.02591  -1.01444  -1.00021  -0.99138
 Alpha  occ. eigenvalues --   -0.95821  -0.95313  -0.93654  -0.91645  -0.90207
 Alpha  occ. eigenvalues --   -0.89287  -0.88124  -0.87230  -0.86681  -0.85860
 Alpha  occ. eigenvalues --   -0.84739  -0.84234  -0.82929  -0.81689  -0.81532
 Alpha  occ. eigenvalues --   -0.80928  -0.79935  -0.79087  -0.75847  -0.72859
 Alpha  occ. eigenvalues --   -0.72585  -0.71424  -0.67758  -0.55740  -0.55484
 Alpha virt. eigenvalues --   -0.21471  -0.19906  -0.17861  -0.15852  -0.14810
 Alpha virt. eigenvalues --   -0.14485  -0.13737  -0.12970  -0.12624  -0.11946
 Alpha virt. eigenvalues --   -0.11351  -0.11021  -0.10587  -0.10050  -0.09645

 Mulliken charges:
               1
     1  O   -0.986918
     2  S    3.014119
     3  N   -0.813027
     4  C   -0.234650
     5  N   -0.009495
     6  O   -1.027165
     7  C   -0.184571
     8  C    1.705113
     9  C    0.570304
    10  C    0.153406
    11  C    0.530493
    12  C    0.278998
    13  C    0.279186
    14  C    2.344545
    15  N   -0.816766
    16  C    0.806761
    17  C    0.809518
    18  O   -1.034538
    19  H   -0.048128
    20  H   -0.563073
    21  H   -0.458667
    22  H   -0.394871
    23  H   -0.413472
    24  H   -0.656470
    25  H   -0.638728
    26  H   -0.189934
    27  H   -0.072315
    28  H   -0.005346
    29  H   -0.075368
    30  H   -0.040729
    31  H   -0.096292
    32  H    0.231866
    33  H    0.036212
 Sum of Mulliken charges =   2.00000

 Dipole moment (field-independent basis, Debye):
    X=              6.9261    Y=             -2.3136    Z=              6.4860  Tot=              9.7669
 Quadrupole moment (field-independent basis, Debye-Ang):
   XX=              9.0189   YY=            -70.5939   ZZ=           -102.2511
   XY=             -1.1950   XZ=             22.2483   YZ=              2.5300

 Normal termination of Gaussian 16 at Mon Sep 28 09:05:25 2020.
