 Gaussian 16, Revision B.01,

 ----------------------------------------------------------------------
 #p b3lyp/6-31G(d) opt freq NoSymm scf=(MaxCycle=2000,NoVarAcc,NoIncFoc
 k) scrf=(iefpcm,read,solvent=water)
 ----------------------------------------------------------------------

 -------------------
 SM43_m0.n.3.pdb.xyz
 -------------------
 Symbolic Z-matrix:
 Charge =  0 Multiplicity = 1

 SCF Done:  E(RB3LYP) =  -1215.00773893     A.U. after   13 cycles
 SCF Done:  E(RB3LYP) =  -1215.00776293     A.U. after    9 cycles
 SCF Done:  E(RB3LYP) =  -1215.00777397     A.U. after    8 cycles
 SCF Done:  E(RB3LYP) =  -1215.00777690     A.U. after    8 cycles
 SCF Done:  E(RB3LYP) =  -1215.00777933     A.U. after    8 cycles
 SCF Done:  E(RB3LYP) =  -1215.00778335     A.U. after    8 cycles
 SCF Done:  E(RB3LYP) =  -1215.00778703     A.U. after    8 cycles
 SCF Done:  E(RB3LYP) =  -1215.00778891     A.U. after    8 cycles
 SCF Done:  E(RB3LYP) =  -1215.00778973     A.U. after    7 cycles
 SCF Done:  E(RB3LYP) =  -1215.00778992     A.U. after    7 cycles
 Optimization completed.
    -- Stationary point found.
 Normal termination of Gaussian 16 at Wed Sep 23 01:34:53 2020.

 --------------------------------------------------------------------
 #P Geom=AllCheck Guess=TCheck SCRF=Check GenChk RB3LYP/6-31G(d) Freq
 --------------------------------------------------------------------

 Structure from the checkpoint file:  "SM43_m0.n.3.pdb.xyz.mst.n.w.chk"
 -------------------
 SM43_m0.n.3.pdb.xyz
 -------------------
 Charge =  0 Multiplicity = 1

 SCF Done:  E(RB3LYP) =  -1215.00778992     A.U. after    1 cycles

  Exact polarizability: 321.480   7.659 213.723   1.236 -19.619 117.497
 Approx polarizability: 331.684  13.328 265.835   1.720 -29.228 139.269

                      1                      2                      3
                      A                      A                      A
 Frequencies --     19.1456                32.8848                53.2257
 Red. masses --      5.4782                 4.1163                 3.5805
 Frc consts  --      0.0012                 0.0026                 0.0060
 IR Inten    --      3.3105                 1.6325                 3.2638

                      4                      5                      6
                      A                      A                      A
 Frequencies --     65.7324                84.3993                85.8888
 Red. masses --      3.9059                 5.4142                 4.9796
 Frc consts  --      0.0099                 0.0227                 0.0216
 IR Inten    --      2.7082                 6.2458                 2.2135

                      7                      8                      9
                      A                      A                      A
 Frequencies --    126.3411               175.2287               202.7433
 Red. masses --      7.4339                 1.9110                 1.4290
 Frc consts  --      0.0699                 0.0346                 0.0346
 IR Inten    --      0.9308                 6.5900                 3.2388

                     10                     11                     12
                      A                      A                      A
 Frequencies --    210.8851               224.7955               241.6171
 Red. masses --      1.6962                 2.7402                 4.1363
 Frc consts  --      0.0444                 0.0816                 0.1423
 IR Inten    --      0.2639                 4.5979                 4.0057

                     13                     14                     15
                      A                      A                      A
 Frequencies --    262.6493               300.1756               335.7025
 Red. masses --      4.9865                 5.8333                 5.1892
 Frc consts  --      0.2027                 0.3097                 0.3446
 IR Inten    --      1.0356                 7.7542                17.2344

                     16                     17                     18
                      A                      A                      A
 Frequencies --    353.6740               385.0936               395.4868
 Red. masses --      2.7868                 6.8276                 6.1537
 Frc consts  --      0.2054                 0.5966                 0.5671
 IR Inten    --      5.0339                13.9223                30.5658

                     19                     20                     21
                      A                      A                      A
 Frequencies --    411.9891               424.3894               466.0539
 Red. masses --      2.9463                 1.4990                 5.0374
 Frc consts  --      0.2946                 0.1591                 0.6447
 IR Inten    --      0.6175               113.5916                15.0733

                     22                     23                     24
                      A                      A                      A
 Frequencies --    471.3940               495.8059               502.7319
 Red. masses --      4.7170                 4.8066                 4.8472
 Frc consts  --      0.6176                 0.6962                 0.7218
 IR Inten    --     48.7486                37.5154                20.3624

                     25                     26                     27
                      A                      A                      A
 Frequencies --    571.1733               630.8392               661.4160
 Red. masses --      8.9665                 6.4450                 8.2446
 Frc consts  --      1.7235                 1.5112                 2.1250
 IR Inten    --    141.3193                 0.0721                 1.9524

                     28                     29                     30
                      A                      A                      A
 Frequencies --    671.2676               693.5656               703.9891
 Red. masses --      5.9415                 5.9149                 1.7414
 Frc consts  --      1.5774                 1.6764                 0.5085
 IR Inten    --    122.5607                25.8603                47.6732

                     31                     32                     33
                      A                      A                      A
 Frequencies --    708.5299               775.1401               786.5628
 Red. masses --      3.7048                 1.4068                 5.9164
 Frc consts  --      1.0958                 0.4980                 2.1566
 IR Inten    --      9.5854               116.6993                86.3873

                     34                     35                     36
                      A                      A                      A
 Frequencies --    801.8127               854.7907               864.8743
 Red. masses --      2.1558                 6.2423                 1.2537
 Frc consts  --      0.8166                 2.6873                 0.5525
 IR Inten    --      2.0533               314.2794                 0.0103

                     37                     38                     39
                      A                      A                      A
 Frequencies --    943.4588               944.0774               959.0813
 Red. masses --      3.1401                 1.3952                 9.4724
 Frc consts  --      1.6468                 0.7326                 5.1336
 IR Inten    --    197.8107                 6.3947                33.2411

                     40                     41                     42
                      A                      A                      A
 Frequencies --    965.7037               985.1163              1014.3271
 Red. masses --      9.6651                 1.3518                 1.2697
 Frc consts  --      5.3106                 0.7729                 0.7697
 IR Inten    --     41.1831                 0.0158                 0.0483

                     43                     44                     45
                      A                      A                      A
 Frequencies --   1016.9056              1049.4699              1063.2143
 Red. masses --      6.1217                 2.4975                 2.4980
 Frc consts  --      3.7298                 1.6207                 1.6637
 IR Inten    --      0.8516                 3.7368                34.5019

                     46                     47                     48
                      A                      A                      A
 Frequencies --   1069.2706              1088.3712              1108.0072
 Red. masses --      1.5811                 3.4017                 7.2442
 Frc consts  --      1.0651                 2.3741                 5.2399
 IR Inten    --     24.0206                72.9955               334.1318

                     49                     50                     51
                      A                      A                      A
 Frequencies --   1111.2275              1131.4230              1175.8011
 Red. masses --      1.7125                 1.2412                 1.3649
 Frc consts  --      1.2459                 0.9361                 1.1118
 IR Inten    --     22.7328                 5.4595                 4.4635

                     52                     53                     54
                      A                      A                      A
 Frequencies --   1190.7538              1205.7028              1214.9467
 Red. masses --      1.0925                 1.2554                 1.9627
 Frc consts  --      0.9127                 1.0752                 1.7070
 IR Inten    --      0.0729                23.2952                25.6862

                     55                     56                     57
                      A                      A                      A
 Frequencies --   1223.3031              1279.5143              1291.2210
 Red. masses --      2.9612                 2.1714                 5.4206
 Frc consts  --      2.6109                 2.0945                 5.3247
 IR Inten    --     34.5410                81.2716               200.7699

                     58                     59                     60
                      A                      A                      A
 Frequencies --   1298.1186              1345.8216              1369.2144
 Red. masses --      5.8761                 2.7359                 2.1198
 Frc consts  --      5.8340                 2.9196                 2.3415
 IR Inten    --     97.5363                11.2698                 0.9478

                     61                     62                     63
                      A                      A                      A
 Frequencies --   1391.6808              1453.1287              1472.3421
 Red. masses --      1.8913                 1.1423                 1.1498
 Frc consts  --      2.1582                 1.4211                 1.4685
 IR Inten    --     36.3397                 2.1800                 2.3715

                     64                     65                     66
                      A                      A                      A
 Frequencies --   1493.4043              1502.5704              1512.7078
 Red. masses --      2.3528                 1.0478                 1.1577
 Frc consts  --      3.0916                 1.3938                 1.5608
 IR Inten    --     46.2698                 7.3689                43.4728

                     67                     68                     69
                      A                      A                      A
 Frequencies --   1514.8503              1517.0555              1522.3889
 Red. masses --      1.0697                 2.6796                 2.5710
 Frc consts  --      1.4463                 3.6335                 3.5108
 IR Inten    --     52.8193               501.0177               194.7794

                     70                     71                     72
                      A                      A                      A
 Frequencies --   1531.8164              1558.2032              1630.1447
 Red. masses --      1.0552                 3.6336                 5.4658
 Frc consts  --      1.4588                 5.1980                 8.5577
 IR Inten    --     13.4150                30.4582                96.1280

                     73                     74                     75
                      A                      A                      A
 Frequencies --   1654.1507              1667.1762              3057.8589
 Red. masses --      6.3989                 6.1546                 1.0448
 Frc consts  --     10.3159                10.0789                 5.7562
 IR Inten    --    108.2767                84.3512                56.8550

                     76                     77                     78
                      A                      A                      A
 Frequencies --   3062.6299              3145.6201              3147.7023
 Red. masses --      1.0424                 1.0932                 1.0958
 Frc consts  --      5.7605                 6.3735                 6.3968
 IR Inten    --     76.4585                48.5573                 2.0231

                     79                     80                     81
                      A                      A                      A
 Frequencies --   3184.7375              3205.6966              3208.2645
 Red. masses --      1.1046                 1.1020                 1.0858
 Frc consts  --      6.6011                 6.6724                 6.5849
 IR Inten    --     12.7508                 5.9137                 1.7697

                     82                     83                     84
                      A                      A                      A
 Frequencies --   3214.6269              3222.6863              3231.3536
 Red. masses --      1.0884                 1.0925                 1.0957
 Frc consts  --      6.6270                 6.6853                 6.7411
 IR Inten    --      5.4223                39.0733                40.4975

                     85                     86                     87
                      A                      A                      A
 Frequencies --   3238.4782              3310.2034              3580.8439
 Red. masses --      1.0951                 1.0994                 1.0777
 Frc consts  --      6.7669                 7.0978                 8.1419
 IR Inten    --     12.0744                 1.8084               230.3260

 - Thermochemistry -
 -------------------
 Temperature   298.150 Kelvin.  Pressure   1.00000 Atm.
 Atom     1 has atomic number  8 and mass  15.99491

 Molecular mass:   267.06776 amu.
 Principal axes and moments of inertia in atomic units:
                           1         2         3
     Eigenvalues --  1450.99790********************
           X            0.99996  -0.00747  -0.00509
           Y            0.00753   0.99990   0.01235
           Z            0.00499  -0.01239   0.99991
 This molecule is an asymmetric top.
 Rotational symmetry number  1.
 Warning -- assumption of classical behavior for rotation
           may cause significant error
 Rotational temperatures (Kelvin)      0.05969     0.00725     0.00697
 Rotational constants (GHZ):           1.24379     0.15111     0.14532
 Zero-point vibrational energy     630003.5 (Joules/Mol)
                                  150.57446 (Kcal/Mol)
 Warning -- explicit consideration of  25 degrees of freedom as
           vibrations may cause significant error
 Vibrational temperatures:     27.55    47.31    76.58    94.57   121.43
          (Kelvin)            123.57   181.78   252.12   291.70   303.42
                              323.43   347.63   377.89   431.89   483.00
                              508.86   554.06   569.02   592.76   610.60
                              670.55   678.23   713.35   723.32   821.79
                              907.64   951.63   965.80   997.89  1012.88
                             1019.42  1115.25  1131.69  1153.63  1229.85
                             1244.36  1357.43  1358.32  1379.90  1389.43
                             1417.36  1459.39  1463.10  1509.95  1529.73
                             1538.44  1565.92  1594.18  1598.81  1627.87
                             1691.72  1713.23  1734.74  1748.04  1760.06
                             1840.94  1857.78  1867.70  1936.34  1969.99
                             2002.32  2090.73  2118.37  2148.68  2161.86
                             2176.45  2179.53  2182.70  2190.38  2203.94
                             2241.91  2345.41  2379.95  2398.69  4399.58
                             4406.44  4525.85  4528.84  4582.13  4612.28
                             4615.98  4625.13  4636.73  4649.20  4659.45
                             4762.64  5152.04

 Zero-point correction=                           0.239956 (Hartree/Particle)
 Thermal correction to Energy=                    0.256867
 Thermal correction to Enthalpy=                  0.257811
 Thermal correction to Gibbs Free Energy=         0.193339
 Sum of electronic and zero-point Energies=          -1214.767834
 Sum of electronic and thermal Energies=             -1214.750923
 Sum of electronic and thermal Enthalpies=           -1214.749979
 Sum of electronic and thermal Free Energies=        -1214.814450

                     E (Thermal)             CV                S
                      KCal/Mol        Cal/Mol-Kelvin    Cal/Mol-Kelvin
 Total                  161.186             63.435            135.692
 Electronic               0.000              0.000              0.000
 Translational            0.889              2.981             42.646
 Rotational               0.889              2.981             33.731
 Vibrational            159.409             57.474             59.315
 Vibration     1          0.593              1.986              6.721
 Vibration     2          0.594              1.983              5.647
 Vibration     3          0.596              1.976              4.694
 Vibration     4          0.597              1.971              4.277
 Vibration     5          0.601              1.960              3.786
 Vibration     6          0.601              1.959              3.752
 Vibration     7          0.611              1.927              3.001
 Vibration     8          0.627              1.873              2.379
 Vibration     9          0.639              1.836              2.108
 Vibration    10          0.643              1.824              2.036
 Vibration    11          0.649              1.803              1.920
 Vibration    12          0.658              1.777              1.791
 Vibration    13          0.670              1.741              1.644
 Vibration    14          0.693              1.673              1.416
 Vibration    15          0.717              1.604              1.233
 Vibration    16          0.730              1.568              1.150
 Vibration    17          0.754              1.502              1.019
 Vibration    18          0.762              1.480              0.979
 Vibration    19          0.776              1.444              0.920
 Vibration    20          0.786              1.417              0.877
 Vibration    21          0.823              1.325              0.749
 Vibration    22          0.828              1.314              0.734
 Vibration    23          0.851              1.259              0.669
 Vibration    24          0.858              1.244              0.651
 Vibration    25          0.927              1.094              0.502

                           ! Non-Optimized Parameters !
 Normal termination of Gaussian 16 at Wed Sep 23 01:42:41 2020.

 ----------------------------------------------------------------------
 #p b3lyp/6-31G(d) scrf=(iefpcm,read,solvent=water) geom=allcheck guess
 =read
 ----------------------------------------------------------------------

 Structure from the checkpoint file:  "SM43_m0.n.3.pdb.xyz.mst.n.w.chk"
 -------------------
 SM43_m0.n.3.pdb.xyz
 -------------------
 Charge =  0 Multiplicity = 1

 SCF Done:  E(RB3LYP) =  -1215.00779046     A.U. after    6 cycles
 Normal termination of Gaussian 16 at Wed Sep 23 01:43:15 2020.

 -----------------------------
 #p B3LYP/6-31G* geom=allcheck
 -----------------------------

 Structure from the checkpoint file:  "SM43_m0.n.3.pdb.xyz.mst.n.w.chk"
 -------------------
 SM43_m0.n.3.pdb.xyz
 -------------------
 Charge =  0 Multiplicity = 1

 SCF Done:  E(RB3LYP) =  -1214.98367393     A.U. after   15 cycles
 Normal termination of Gaussian 16 at Wed Sep 23 01:43:52 2020.
 Gaussian 16:  ES64L-G16RevB.01 20-Dec-2017

 ----------------------------------------------------------------------
 #p mp2/aug-cc-pVDZ scf=(MaxCycle=2000,NoVarAcc,NoIncFock) maxdisk=120G
 B geom=allcheck
 ----------------------------------------------------------------------

 Structure from the checkpoint file:  "SM43_m0.n.3.pdb.xyz.mst.n.w.chk"
 -------------------
 SM43_m0.n.3.pdb.xyz
 -------------------
 Charge =  0 Multiplicity = 1

                         Standard orientation:
 ---------------------------------------------------------------------
 Center     Atomic      Atomic             Coordinates (Angstroms)
 Number     Number       Type             X           Y           Z
 ---------------------------------------------------------------------
      1          8           0       -2.881584    0.206639   -1.784094
      2         16           0       -3.068156   -0.474506   -0.502088
      3          7           0       -1.622041   -1.083306    0.109341
      4          6           0       -0.390987   -0.437862    0.006678
      5          7           0       -0.284398    0.864233   -0.178689
      6          8           0        1.100872    1.106357   -0.183772
      7          6           0        1.768629   -0.057327    0.004055
      8          6           0        3.226069   -0.001428    0.030605
      9          6           0        3.898979    1.210684   -0.193465
     10          6           0        5.290795    1.252885   -0.166922
     11          6           0        6.024896    0.091097    0.081959
     12          6           0        5.360099   -1.117717    0.305950
     13          6           0        3.969163   -1.167084    0.281455
     14          6           0        0.870811   -1.079210    0.130927
     15          7           0       -3.403182    0.702834    0.629658
     16          6           0       -4.255480    1.808221    0.157340
     17          6           0       -3.755784    0.191054    1.962283
     18          8           0       -3.970381   -1.631469   -0.438552
     19          1           0       -1.595580   -2.100572    0.069649
     20          1           0        3.327258    2.110203   -0.387872
     21          1           0        5.802236    2.193340   -0.341675
     22          1           0        7.108760    0.126539    0.101942
     23          1           0        5.925893   -2.022254    0.500990
     24          1           0        3.456679   -2.106183    0.459318
     25          1           0        1.062133   -2.128315    0.283899
     26          1           0       -3.895693    2.153196   -0.809623
     27          1           0       -4.160948    2.616071    0.884852
     28          1           0       -5.310597    1.519876    0.080815
     29          1           0       -3.034938   -0.568170    2.264759
     30          1           0       -4.767390   -0.228619    1.991572
     31          1           0       -3.694371    1.028568    2.658782
 ---------------------------------------------------------------------

 SCF Done:  E(RHF) =  -1209.52815029     A.U. after   17 cycles
 E2 =    -0.2782850049D+01 EUMP2 =    -0.12123110003418D+04

 The electronic state is 1-A.
 Alpha  occ. eigenvalues --  -92.25128 -20.65381 -20.56508 -20.56093 -15.63822
 Alpha  occ. eigenvalues --  -15.62127 -15.61387 -11.34424 -11.34231 -11.27941
 Alpha  occ. eigenvalues --  -11.27578 -11.27382 -11.26841 -11.26421 -11.26352
 Alpha  occ. eigenvalues --  -11.26096 -11.25915 -11.25414  -9.21536  -6.90092
 Alpha  occ. eigenvalues --   -6.90054  -6.90002  -1.49374  -1.47383  -1.34309
 Alpha  occ. eigenvalues --   -1.28557  -1.25263  -1.18387  -1.14437  -1.09958
 Alpha  occ. eigenvalues --   -1.03844  -1.03118  -0.98161  -0.96234  -0.88558
 Alpha  occ. eigenvalues --   -0.86799  -0.84480  -0.81629  -0.78107  -0.75493
 Alpha  occ. eigenvalues --   -0.72897  -0.71268  -0.69710  -0.67122  -0.66691
 Alpha  occ. eigenvalues --   -0.66085  -0.65317  -0.63728  -0.63184  -0.61240
 Alpha  occ. eigenvalues --   -0.61186  -0.60410  -0.58209  -0.56945  -0.56754
 Alpha  occ. eigenvalues --   -0.55533  -0.53947  -0.52890  -0.52500  -0.51286
 Alpha  occ. eigenvalues --   -0.51246  -0.50142  -0.48956  -0.47615  -0.46718
 Alpha  occ. eigenvalues --   -0.41185  -0.40543  -0.38906  -0.35612  -0.32383
 Alpha virt. eigenvalues --    0.02516   0.03192   0.03690   0.04233   0.04811
 Alpha virt. eigenvalues --    0.05226   0.05544   0.05845   0.06392   0.07058
 Alpha virt. eigenvalues --    0.07279   0.07941   0.08417   0.09365   0.09379

 Mulliken charges:
               1
     1  O   -1.134407
     2  S    3.225379
     3  N   -0.938375
     4  C   -0.271717
     5  N   -0.270229
     6  O   -1.078749
     7  C    0.232633
     8  C    1.398713
     9  C    0.424138
    10  C    0.202276
    11  C    0.538858
    12  C    0.035204
    13  C    0.616120
    14  C    1.669874
    15  N   -1.075113
    16  C    0.777386
    17  C    0.720349
    18  O   -1.134379
    19  H   -0.057177
    20  H   -0.658302
    21  H   -0.440168
    22  H   -0.434946
    23  H   -0.482151
    24  H   -0.589466
    25  H   -0.569403
    26  H   -0.153746
    27  H   -0.142545
    28  H   -0.072563
    29  H   -0.138923
    30  H   -0.048825
    31  H   -0.149747
 Sum of Mulliken charges =  -0.00000

 Dipole moment (field-independent basis, Debye):
    X=              3.7139    Y=             -1.1227    Z=              4.0819  Tot=              5.6316
 Quadrupole moment (field-independent basis, Debye-Ang):
   XX=            -96.7777   YY=           -105.6373   ZZ=           -120.4130
   XY=            -11.6011   XZ=            -12.8792   YZ=             -1.6150

 Normal termination of Gaussian 16 at Wed Sep 23 02:15:00 2020.
