 Gaussian 16, Revision B.01,

 ----------------------------------------------------------------------
 #p b3lyp/6-31G(d) opt freq NoSymm scf=(MaxCycle=2000,NoVarAcc,NoIncFoc
 k) scrf=(iefpcm,read,solvent=water)
 ----------------------------------------------------------------------

 -------------------
 SM43_m2.b.9.pdb.xyz
 -------------------
 Symbolic Z-matrix:
 Charge =  1 Multiplicity = 1

 SCF Done:  E(RB3LYP) =  -1215.44286738     A.U. after   13 cycles
 SCF Done:  E(RB3LYP) =  -1215.44305555     A.U. after   10 cycles
 SCF Done:  E(RB3LYP) =  -1215.44305253     A.U. after   10 cycles
 SCF Done:  E(RB3LYP) =  -1215.44315287     A.U. after   10 cycles
 SCF Done:  E(RB3LYP) =  -1215.44309209     A.U. after   10 cycles
 SCF Done:  E(RB3LYP) =  -1215.44318787     A.U. after    9 cycles
 SCF Done:  E(RB3LYP) =  -1215.44327280     A.U. after   10 cycles
 SCF Done:  E(RB3LYP) =  -1215.44175488     A.U. after   11 cycles
 SCF Done:  E(RB3LYP) =  -1215.44293353     A.U. after   11 cycles
 SCF Done:  E(RB3LYP) =  -1215.44333177     A.U. after    8 cycles
 SCF Done:  E(RB3LYP) =  -1215.44346506     A.U. after    8 cycles
 SCF Done:  E(RB3LYP) =  -1215.44346368     A.U. after    8 cycles
 SCF Done:  E(RB3LYP) =  -1215.44346455     A.U. after    7 cycles
 SCF Done:  E(RB3LYP) =  -1215.44346516     A.U. after    8 cycles
 SCF Done:  E(RB3LYP) =  -1215.44346389     A.U. after    8 cycles
 SCF Done:  E(RB3LYP) =  -1215.44346361     A.U. after    7 cycles
 Optimization completed.
    -- Stationary point found.
 Normal termination of Gaussian 16 at Thu Sep 24 07:15:27 2020.

 --------------------------------------------------------------------
 #P Geom=AllCheck Guess=TCheck SCRF=Check GenChk RB3LYP/6-31G(d) Freq
 --------------------------------------------------------------------

 Structure from the checkpoint file:  "SM43_m2.b.9.pdb.xyz.mst.b.w.chk"
 -------------------
 SM43_m2.b.9.pdb.xyz
 -------------------
 Charge =  1 Multiplicity = 1

 SCF Done:  E(RB3LYP) =  -1215.44346361     A.U. after    1 cycles

  Exact polarizability: 328.340   0.548 213.185  -9.658  -5.454 113.143
 Approx polarizability: 340.655   7.600 267.169 -11.592 -10.852 134.866

                      1                      2                      3
                      A                      A                      A
 Frequencies --     28.8470                31.7884                49.9977
 Red. masses --      4.1473                 6.5969                 5.2064
 Frc consts  --      0.0020                 0.0039                 0.0077
 IR Inten    --      3.5731                 4.4656                 8.9086

                      4                      5                      6
                      A                      A                      A
 Frequencies --     80.0309                88.3592               103.9493
 Red. masses --      5.4632                 3.5190                 3.7001
 Frc consts  --      0.0206                 0.0162                 0.0236
 IR Inten    --      9.2218                 1.3024                 6.2383

                      7                      8                      9
                      A                      A                      A
 Frequencies --    124.3486               177.3721               190.5365
 Red. masses --      6.8627                 2.0851                 2.7275
 Frc consts  --      0.0625                 0.0386                 0.0583
 IR Inten    --      3.5517                 9.1898                 2.6575

                     10                     11                     12
                      A                      A                      A
 Frequencies --    224.7463               229.2198               244.9962
 Red. masses --      3.9988                 1.5243                 2.5599
 Frc consts  --      0.1190                 0.0472                 0.0905
 IR Inten    --      5.3980                 0.1796                 8.4316

                     13                     14                     15
                      A                      A                      A
 Frequencies --    268.7690               277.0424               297.7434
 Red. masses --      1.8300                 2.8480                 4.6865
 Frc consts  --      0.0779                 0.1288                 0.2448
 IR Inten    --     17.2242                68.8784                19.9439

                     16                     17                     18
                      A                      A                      A
 Frequencies --    340.2606               362.5259               385.5739
 Red. masses --      2.2334                 5.1253                 5.6352
 Frc consts  --      0.1523                 0.3969                 0.4936
 IR Inten    --     38.4976                26.3831                 9.8198

                     19                     20                     21
                      A                      A                      A
 Frequencies --    410.7719               412.7780               435.7888
 Red. masses --      2.9782                 4.1282                 2.8271
 Frc consts  --      0.2961                 0.4144                 0.3163
 IR Inten    --      1.1904                33.9432                14.9140

                     22                     23                     24
                      A                      A                      A
 Frequencies --    469.8617               498.6486               505.0272
 Red. masses --      5.9049                 4.3025                 4.7579
 Frc consts  --      0.7681                 0.6303                 0.7150
 IR Inten    --     38.1167                19.4756                15.4373

                     25                     26                     27
                      A                      A                      A
 Frequencies --    566.4320               586.2566               630.2263
 Red. masses --      7.2695                 5.1325                 6.4418
 Frc consts  --      1.3742                 1.0393                 1.5075
 IR Inten    --    140.6409               206.3623                 0.0331

                     28                     29                     30
                      A                      A                      A
 Frequencies --    659.5367               692.3859               702.6241
 Red. masses --      8.7003                 4.9189                 1.7666
 Frc consts  --      2.2298                 1.3894                 0.5138
 IR Inten    --     14.8079                11.8990                38.3827

                     31                     32                     33
                      A                      A                      A
 Frequencies --    706.3869               778.9289               789.6779
 Red. masses --      4.4740                 1.4925                 4.4525
 Frc consts  --      1.3153                 0.5335                 1.6359
 IR Inten    --     33.8690                98.9811                38.5635

                     34                     35                     36
                      A                      A                      A
 Frequencies --    813.2627               862.3809               867.6081
 Red. masses --      2.1905                 1.2540                 3.5676
 Frc consts  --      0.8536                 0.5495                 1.5822
 IR Inten    --     13.8264                 0.1161                49.1916

                     37                     38                     39
                      A                      A                      A
 Frequencies --    905.1192               946.0649               964.0113
 Red. masses --      6.4205                 1.3888                 8.7955
 Frc consts  --      3.0991                 0.7324                 4.8159
 IR Inten    --    152.3049                 3.0450                11.1138

                     40                     41                     42
                      A                      A                      A
 Frequencies --    984.5095               988.7720              1013.5808
 Red. masses --      1.3545                10.8586                 2.5432
 Frc consts  --      0.7735                 6.2548                 1.5394
 IR Inten    --      0.0496                75.7886                28.3978

                     43                     44                     45
                      A                      A                      A
 Frequencies --   1014.0106              1016.6333              1047.4377
 Red. masses --      1.2730                 6.1216                 2.4750
 Frc consts  --      0.7712                 3.7277                 1.5998
 IR Inten    --      0.0849                 1.9739                 5.1210

                     46                     47                     48
                      A                      A                      A
 Frequencies --   1067.8394              1074.6712              1088.0287
 Red. masses --      2.0922                 1.1477                 4.5322
 Frc consts  --      1.4056                 0.7809                 3.1611
 IR Inten    --     25.6063                11.1692                37.9452

                     49                     50                     51
                      A                      A                      A
 Frequencies --   1110.4786              1145.8850              1155.1169
 Red. masses --      1.5777                 3.5859                 1.7125
 Frc consts  --      1.1463                 2.7742                 1.3463
 IR Inten    --     12.6170               241.5485                15.7799

                     52                     53                     54
                      A                      A                      A
 Frequencies --   1173.5089              1188.2391              1200.4838
 Red. masses --      1.7978                 1.0942                 1.3254
 Frc consts  --      1.4587                 0.9103                 1.1254
 IR Inten    --    169.4879                 0.2658                27.8386

                     55                     56                     57
                      A                      A                      A
 Frequencies --   1212.9010              1256.4102              1290.0372
 Red. masses --      1.6064                 1.6168                 4.7690
 Frc consts  --      1.3923                 1.5038                 4.6760
 IR Inten    --     16.8988                 0.5238                 8.2420

                     58                     59                     60
                      A                      A                      A
 Frequencies --   1343.3439              1361.9394              1369.3462
 Red. masses --      2.6042                 3.5221                 2.0082
 Frc consts  --      2.7688                 3.8492                 2.2186
 IR Inten    --     59.0103               122.1012                 0.5207

                     61                     62                     63
                      A                      A                      A
 Frequencies --   1387.4936              1421.3584              1444.6277
 Red. masses --      1.3853                 2.3864                 1.1327
 Frc consts  --      1.5713                 2.8406                 1.3928
 IR Inten    --     68.7287               109.1492                 9.4054

                     64                     65                     66
                      A                      A                      A
 Frequencies --   1462.6136              1469.2477              1491.8231
 Red. masses --      1.2074                 1.1648                 2.4251
 Frc consts  --      1.5218                 1.4814                 3.1798
 IR Inten    --     40.6140                 5.5086                35.5713

                     67                     68                     69
                      A                      A                      A
 Frequencies --   1500.3008              1506.3587              1511.0269
 Red. masses --      1.0520                 1.0484                 1.0475
 Frc consts  --      1.3952                 1.4016                 1.4092
 IR Inten    --     30.6539                16.0018                16.9530

                     70                     71                     72
                      A                      A                      A
 Frequencies --   1514.8340              1523.6871              1530.1379
 Red. masses --      3.6540                 2.7285                 1.0484
 Frc consts  --      4.9403                 3.7322                 1.4462
 IR Inten    --     78.8044               730.9693                61.1388

                     73                     74                     75
                      A                      A                      A
 Frequencies --   1555.0407              1627.1913              1650.2141
 Red. masses --      3.4778                 5.5895                 6.5968
 Frc consts  --      4.9549                 8.7197                10.5844
 IR Inten    --     14.4765               109.2125                80.8710

                     76                     77                     78
                      A                      A                      A
 Frequencies --   1664.2223              3126.9349              3129.4130
 Red. masses --      5.9074                 1.0296                 1.0295
 Frc consts  --      9.6398                 5.9312                 5.9403
 IR Inten    --     55.9530                 3.6155                 4.7744

                     79                     80                     81
                      A                      A                      A
 Frequencies --   3209.9552              3215.8086              3222.5635
 Red. masses --      1.0859                 1.0885                 1.1084
 Frc consts  --      6.5925                 6.6323                 6.7818
 IR Inten    --      1.5189                 4.2396                 0.8259

                     82                     83                     84
                      A                      A                      A
 Frequencies --   3223.3733              3226.8520              3231.7892
 Red. masses --      1.0926                 1.1092                 1.0958
 Frc consts  --      6.6885                 6.8048                 6.7435
 IR Inten    --     36.3549                 2.0438                38.6984

                     85                     86                     87
                      A                      A                      A
 Frequencies --   3235.4734              3238.7687              3240.0178
 Red. masses --      1.1103                 1.0953                 1.1096
 Frc consts  --      6.8479                 6.7693                 6.8630
 IR Inten    --      2.3477                12.4478                 1.1223

                     88                     89                     90
                      A                      A                      A
 Frequencies --   3324.4701              3352.4956              3526.0993
 Red. masses --      1.0995                 1.0785                 1.0786
 Frc consts  --      7.1598                 7.1418                 7.9015
 IR Inten    --      4.5317               255.5246               353.6175

 - Thermochemistry -
 -------------------
 Temperature   298.150 Kelvin.  Pressure   1.00000 Atm.
 Atom     1 has atomic number  8 and mass  15.99491

 Molecular mass:   268.07559 amu.
 Principal axes and moments of inertia in atomic units:
                           1         2         3
     Eigenvalues --  1381.91208********************
           X            0.99983   0.01750   0.00546
           Y           -0.01679   0.99371  -0.11075
           Z           -0.00736   0.11064   0.99383
 This molecule is an asymmetric top.
 Rotational symmetry number  1.
 Warning -- assumption of classical behavior for rotation
           may cause significant error
 Rotational temperatures (Kelvin)      0.06268     0.00704     0.00678
 Rotational constants (GHZ):           1.30597     0.14669     0.14136
 Zero-point vibrational energy     667380.2 (Joules/Mol)
                                  159.50769 (Kcal/Mol)
 Warning -- explicit consideration of  26 degrees of freedom as
           vibrations may cause significant error
 Vibrational temperatures:     41.50    45.74    71.94   115.15   127.13
          (Kelvin)            149.56   178.91   255.20   274.14   323.36
                              329.80   352.49   386.70   398.60   428.39
                              489.56   521.59   554.75   591.01   593.90
                              627.00   676.03   717.44   726.62   814.97
                              843.49   906.76   948.93   996.19  1010.92
                             1016.33  1120.70  1136.17  1170.10  1240.77
                             1248.29  1302.26  1361.18  1387.00  1416.49
                             1422.62  1458.32  1458.94  1462.71  1507.03
                             1536.38  1546.21  1565.43  1597.73  1648.67
                             1661.96  1688.42  1709.61  1727.23  1745.09
                             1807.69  1856.08  1932.77  1959.53  1970.18
                             1996.29  2045.02  2078.50  2104.37  2113.92
                             2146.40  2158.60  2167.31  2174.03  2179.51
                             2192.25  2201.53  2237.36  2341.17  2374.29
                             2394.44  4498.96  4502.53  4618.41  4626.83
                             4636.55  4637.72  4642.72  4649.82  4655.12
                             4659.87  4661.66  4783.17  4823.49  5073.27

 Zero-point correction=                           0.254192 (Hartree/Particle)
 Thermal correction to Energy=                    0.271227
 Thermal correction to Enthalpy=                  0.272171
 Thermal correction to Gibbs Free Energy=         0.208029
 Sum of electronic and zero-point Energies=          -1215.189272
 Sum of electronic and thermal Energies=             -1215.172237
 Sum of electronic and thermal Enthalpies=           -1215.171292
 Sum of electronic and thermal Free Energies=        -1215.235435

                     E (Thermal)             CV                S
                      KCal/Mol        Cal/Mol-Kelvin    Cal/Mol-Kelvin
 Total                  170.198             64.160            135.000
 Electronic               0.000              0.000              0.000
 Translational            0.889              2.981             42.657
 Rotational               0.889              2.981             33.739
 Vibrational            168.420             58.198             58.603
 Vibration     1          0.593              1.984              5.907
 Vibration     2          0.594              1.983              5.715
 Vibration     3          0.595              1.978              4.817
 Vibration     4          0.600              1.963              3.890
 Vibration     5          0.601              1.957              3.696
 Vibration     6          0.605              1.946              3.379
 Vibration     7          0.610              1.929              3.032
 Vibration     8          0.628              1.870              2.356
 Vibration     9          0.634              1.853              2.223
 Vibration    10          0.649              1.803              1.921
 Vibration    11          0.652              1.796              1.885
 Vibration    12          0.660              1.771              1.766
 Vibration    13          0.673              1.731              1.604
 Vibration    14          0.678              1.716              1.552
 Vibration    15          0.691              1.678              1.430
 Vibration    16          0.720              1.595              1.211
 Vibration    17          0.736              1.549              1.111
 Vibration    18          0.754              1.501              1.017
 Vibration    19          0.775              1.447              0.924
 Vibration    20          0.777              1.442              0.917
 Vibration    21          0.796              1.392              0.840
 Vibration    22          0.827              1.317              0.738
 Vibration    23          0.854              1.253              0.662
 Vibration    24          0.860              1.239              0.646
 Vibration    25          0.922              1.104              0.511
 Vibration    26          0.943              1.061              0.474

                           ! Non-Optimized Parameters !
 Normal termination of Gaussian 16 at Thu Sep 24 07:24:07 2020.

 ----------------------------------------------------------------------
 #p b3lyp/6-31G(d) scrf=(iefpcm,read,solvent=water) geom=allcheck guess
 =read
 ----------------------------------------------------------------------

 Structure from the checkpoint file:  "SM43_m2.b.9.pdb.xyz.mst.b.w.chk"
 -------------------
 SM43_m2.b.9.pdb.xyz
 -------------------
 Charge =  1 Multiplicity = 1

 SCF Done:  E(RB3LYP) =  -1215.44344174     A.U. after    7 cycles
 Normal termination of Gaussian 16 at Thu Sep 24 07:24:42 2020.

 -----------------------------
 #p B3LYP/6-31G* geom=allcheck
 -----------------------------

 Structure from the checkpoint file:  "SM43_m2.b.9.pdb.xyz.mst.b.w.chk"
 -------------------
 SM43_m2.b.9.pdb.xyz
 -------------------
 Charge =  1 Multiplicity = 1

 SCF Done:  E(RB3LYP) =  -1215.34267610     A.U. after   16 cycles
 Normal termination of Gaussian 16 at Thu Sep 24 07:25:24 2020.
 Gaussian 16:  ES64L-G16RevB.01 20-Dec-2017

 ----------------------------------------------------------------------
 #p mp2/aug-cc-pVDZ scf=(MaxCycle=2000,NoVarAcc,NoIncFock) maxdisk=120G
 B geom=allcheck
 ----------------------------------------------------------------------

 Structure from the checkpoint file:  "SM43_m2.b.9.pdb.xyz.mst.b.w.chk"
 -------------------
 SM43_m2.b.9.pdb.xyz
 -------------------
 Charge =  1 Multiplicity = 1

                         Standard orientation:
 ---------------------------------------------------------------------
 Center     Atomic      Atomic             Coordinates (Angstroms)
 Number     Number       Type             X           Y           Z
 ---------------------------------------------------------------------
      1          8           0       -2.554921    0.028009   -1.782177
      2         16           0       -2.894945   -0.587979   -0.516227
      3          7           0       -1.576135   -0.963164    0.372396
      4          6           0       -0.312751   -0.363370    0.233914
      5          7           0       -0.203509    0.933006    0.034348
      6          8           0        1.169745    1.153559   -0.059408
      7          6           0        1.837487   -0.015378    0.117074
      8          6           0        3.292998    0.022243    0.059638
      9          6           0        3.971466    1.237167   -0.130784
     10          6           0        5.362698    1.257150   -0.185912
     11          6           0        6.088895    0.071504   -0.052831
     12          6           0        5.417952   -1.139708    0.136774
     13          6           0        4.027642   -1.167966    0.193501
     14          6           0        0.933329   -1.025851    0.305618
     15          7           0       -3.627374    0.825947    0.447735
     16          6           0       -4.780756    1.401729   -0.320634
     17          6           0       -3.998686    0.409247    1.834935
     18          8           0       -3.868405   -1.651129   -0.362028
     19          1           0       -1.651401   -1.844326    0.884140
     20          1           0        3.405966    2.155513   -0.233593
     21          1           0        5.880196    2.198873   -0.332627
     22          1           0        7.172364    0.090428   -0.096973
     23          1           0        5.978277   -2.062577    0.239395
     24          1           0        3.509763   -2.109692    0.338294
     25          1           0        1.115693   -2.075490    0.462003
     26          1           0       -4.424031    1.699903   -1.303154
     27          1           0       -5.140782    2.265315    0.235290
     28          1           0       -5.559024    0.644853   -0.395642
     29          1           0       -3.110181    0.036959    2.339485
     30          1           0       -4.767459   -0.357476    1.774226
     31          1           0       -4.376507    1.292306    2.347019
     32          1           0       -2.877630    1.538441    0.501569
 ---------------------------------------------------------------------

 SCF Done:  E(RHF) =  -1209.87862837     A.U. after   16 cycles
 E2 =    -0.2786765977D+01 EUMP2 =    -0.12126653943508D+04

 The electronic state is 1-A.
 Alpha  occ. eigenvalues --  -92.44535 -20.77994 -20.75965 -20.75445 -15.88407
 Alpha  occ. eigenvalues --  -15.81254 -15.75816 -11.48003 -11.46250 -11.45898
 Alpha  occ. eigenvalues --  -11.45694 -11.36853 -11.36158 -11.35288 -11.34864
 Alpha  occ. eigenvalues --  -11.34371 -11.33817 -11.33662  -9.40889  -7.09420
 Alpha  occ. eigenvalues --   -7.09378  -7.09363  -1.66758  -1.62268  -1.54221
 Alpha  occ. eigenvalues --   -1.48355  -1.45093  -1.29398  -1.26318  -1.21161
 Alpha  occ. eigenvalues --   -1.17272  -1.13044  -1.12183  -1.11872  -1.06245
 Alpha  occ. eigenvalues --   -0.98994  -0.98268  -0.94848  -0.92919  -0.91174
 Alpha  occ. eigenvalues --   -0.89465  -0.88624  -0.85622  -0.83457  -0.81442
 Alpha  occ. eigenvalues --   -0.79954  -0.79081  -0.77620  -0.77417  -0.75777
 Alpha  occ. eigenvalues --   -0.75274  -0.74065  -0.73007  -0.72238  -0.71082
 Alpha  occ. eigenvalues --   -0.70664  -0.69024  -0.68789  -0.68082  -0.67300
 Alpha  occ. eigenvalues --   -0.66342  -0.65479  -0.62297  -0.61157  -0.60423
 Alpha  occ. eigenvalues --   -0.59231  -0.53905  -0.51301  -0.43552  -0.41939
 Alpha virt. eigenvalues --   -0.07619  -0.06508  -0.05213  -0.04927  -0.04388
 Alpha virt. eigenvalues --   -0.03589  -0.03172  -0.02865  -0.02084  -0.01796
 Alpha virt. eigenvalues --   -0.01719  -0.01485  -0.00629  -0.00003   0.00202

 Mulliken charges:
               1
     1  O   -1.030994
     2  S    2.963942
     3  N   -0.932888
     4  C   -0.169049
     5  N   -0.243642
     6  O   -1.067283
     7  C    0.130904
     8  C    1.470270
     9  C    0.418785
    10  C    0.195013
    11  C    0.547147
    12  C    0.068517
    13  C    0.624370
    14  C    1.662214
    15  N   -0.745946
    16  C    0.781670
    17  C    0.822754
    18  O   -1.039266
    19  H   -0.044511
    20  H   -0.656147
    21  H   -0.429521
    22  H   -0.418011
    23  H   -0.470897
    24  H   -0.580881
    25  H   -0.537727
    26  H   -0.099755
    27  H   -0.102263
    28  H   -0.051915
    29  H   -0.161740
    30  H   -0.017323
    31  H   -0.113290
    32  H    0.227461
 Sum of Mulliken charges =   1.00000

 Dipole moment (field-independent basis, Debye):
    X=             -8.5473    Y=              0.7578    Z=              5.0777  Tot=              9.9707
 Quadrupole moment (field-independent basis, Debye-Ang):
   XX=            -16.8861   YY=            -95.9214   ZZ=           -111.2164
   XY=            -19.2450   XZ=            -15.4544   YZ=             -2.5954

 Normal termination of Gaussian 16 at Thu Sep 24 07:59:51 2020.
