 Gaussian 16, Revision B.01,

 ----------------------------------------------------------------------
 #p b3lyp/6-31G(d) opt freq NoSymm scf=(MaxCycle=2000,NoVarAcc,NoIncFoc
 k) scrf=(iefpcm,read,solvent=water)
 ----------------------------------------------------------------------

 --------------------
 SM38_m1.a.12.pdb.xyz
 --------------------
 Symbolic Z-matrix:
 Charge = -1 Multiplicity = 1

 SCF Done:  E(RB3LYP) =  -1619.00522589     A.U. after   13 cycles
 SCF Done:  E(RB3LYP) =  -1619.00523198     A.U. after    8 cycles
 SCF Done:  E(RB3LYP) =  -1619.00521333     A.U. after    8 cycles
 SCF Done:  E(RB3LYP) =  -1619.00514941     A.U. after   10 cycles
 SCF Done:  E(RB3LYP) =  -1619.00522745     A.U. after    9 cycles
 SCF Done:  E(RB3LYP) =  -1619.00523194     A.U. after    8 cycles
 SCF Done:  E(RB3LYP) =  -1619.00522918     A.U. after    7 cycles
 SCF Done:  E(RB3LYP) =  -1619.00522914     A.U. after    7 cycles
 SCF Done:  E(RB3LYP) =  -1619.00522920     A.U. after    6 cycles
 Optimization completed.
    -- Stationary point found.
 Normal termination of Gaussian 16 at Tue Sep 22 01:58:59 2020.

 --------------------------------------------------------------------
 #P Geom=AllCheck Guess=TCheck SCRF=Check GenChk RB3LYP/6-31G(d) Freq
 --------------------------------------------------------------------

 Structure from the checkpoint file:  "SM38_m1.a.12.pdb.xyz.mst.a.w.chk"
 --------------------
 SM38_m1.a.12.pdb.xyz
 --------------------
 Charge = -1 Multiplicity = 1

 SCF Done:  E(RB3LYP) =  -1619.00522920     A.U. after    1 cycles

  Exact polarizability: 273.974  33.231 189.290   7.446   1.840 232.822
 Approx polarizability: 294.629  32.068 215.699   1.287   1.131 277.482

                      1                      2                      3
                      A                      A                      A
 Frequencies --     13.1610                36.3540                44.1818
 Red. masses --      4.6569                 5.0395                 7.1143
 Frc consts  --      0.0005                 0.0039                 0.0082
 IR Inten    --      0.3346                 3.4259                 7.0618

                      4                      5                      6
                      A                      A                      A
 Frequencies --     60.2683                66.2495                92.0768
 Red. masses --      4.3721                 5.6582                 6.8548
 Frc consts  --      0.0094                 0.0146                 0.0342
 IR Inten    --      0.6009                 7.4509                 0.0355

                      7                      8                      9
                      A                      A                      A
 Frequencies --    123.9218               145.1828               165.5090
 Red. masses --      6.6213                 5.5380                 6.0513
 Frc consts  --      0.0599                 0.0688                 0.0977
 IR Inten    --     13.0075                 3.3821                 9.5708

                     10                     11                     12
                      A                      A                      A
 Frequencies --    206.3038               226.2470               230.5320
 Red. masses --      6.0483                 1.0913                 4.6308
 Frc consts  --      0.1517                 0.0329                 0.1450
 IR Inten    --      2.8683                 0.6668                 2.0356

                     13                     14                     15
                      A                      A                      A
 Frequencies --    243.1334               283.4790               298.2543
 Red. masses --      3.3788                 3.7574                 3.6620
 Frc consts  --      0.1177                 0.1779                 0.1919
 IR Inten    --     15.1125                28.4056                 2.5165

                     16                     17                     18
                      A                      A                      A
 Frequencies --    310.2359               327.1644               351.5343
 Red. masses --      3.3451                 2.2356                 2.5511
 Frc consts  --      0.1897                 0.1410                 0.1857
 IR Inten    --      2.0688                 2.7613                 5.2674

                     19                     20                     21
                      A                      A                      A
 Frequencies --    388.6815               409.6737               419.2189
 Red. masses --      4.4448                 2.6441                 2.9800
 Frc consts  --      0.3956                 0.2615                 0.3086
 IR Inten    --     35.2730                10.4427                 0.3559

                     22                     23                     24
                      A                      A                      A
 Frequencies --    423.8008               466.0255               480.4700
 Red. masses --      4.2160                 4.7697                 7.9073
 Frc consts  --      0.4461                 0.6103                 1.0755
 IR Inten    --     39.9741                21.6318                44.1527

                     25                     26                     27
                      A                      A                      A
 Frequencies --    507.0857               522.1253               551.9210
 Red. masses --      3.8616                 8.3509                 4.4561
 Frc consts  --      0.5850                 1.3413                 0.7998
 IR Inten    --     20.0849                63.2600                36.2677

                     28                     29                     30
                      A                      A                      A
 Frequencies --    577.5866               599.9702               634.6321
 Red. masses --      2.8634                 6.1969                 6.3492
 Frc consts  --      0.5628                 1.3143                 1.5067
 IR Inten    --     12.4933                52.1848                 0.3961

                     31                     32                     33
                      A                      A                      A
 Frequencies --    672.2750               715.1444               747.9574
 Red. masses --      4.1232                 2.0459                 3.4584
 Frc consts  --      1.0979                 0.6165                 1.1399
 IR Inten    --     27.8009                29.2504                79.4140

                     34                     35                     36
                      A                      A                      A
 Frequencies --    752.1181               756.0157               773.3954
 Red. masses --      3.3229                 5.5609                 2.0109
 Frc consts  --      1.1075                 1.8727                 0.7087
 IR Inten    --     46.1920                36.7185                44.7763

                     37                     38                     39
                      A                      A                      A
 Frequencies --    795.2647               828.0745               836.2989
 Red. masses --      3.5321                 1.8650                 2.7128
 Frc consts  --      1.3161                 0.7535                 1.1179
 IR Inten    --     21.8234                37.0125                36.8654

                     40                     41                     42
                      A                      A                      A
 Frequencies --    864.4274               872.7324               917.7489
 Red. masses --      1.2526                 2.7141                 1.5227
 Frc consts  --      0.5515                 1.2180                 0.7556
 IR Inten    --      0.1022                 7.4866                 7.3244

                     43                     44                     45
                      A                      A                      A
 Frequencies --    937.2713               973.9040               981.3541
 Red. masses --      1.9452                 1.3514                 1.9626
 Frc consts  --      1.0068                 0.7552                 1.1136
 IR Inten    --      6.4881                 0.0563                77.3845

                     46                     47                     48
                      A                      A                      A
 Frequencies --    984.7485               988.2091               997.8413
 Red. masses --      1.5986                 2.2358                 1.3901
 Frc consts  --      0.9134                 1.2864                 0.8155
 IR Inten    --      9.0004                28.9078                 2.1699

                     49                     50                     51
                      A                      A                      A
 Frequencies --   1002.1659              1015.0876              1031.3503
 Red. masses --      1.8227                 6.1060                 1.4371
 Frc consts  --      1.0785                 3.7069                 0.9006
 IR Inten    --     12.5570                 0.8338                30.8828

                     52                     53                     54
                      A                      A                      A
 Frequencies --   1034.0585              1055.8983              1060.5113
 Red. masses --      1.6238                 2.4814                 2.9290
 Frc consts  --      1.0230                 1.6300                 1.9409
 IR Inten    --     29.4485               113.3847               200.6044

                     55                     56                     57
                      A                      A                      A
 Frequencies --   1073.3991              1078.3046              1114.8766
 Red. masses --      2.3518                 4.7902                 1.8441
 Frc consts  --      1.5965                 3.2816                 1.3505
 IR Inten    --     87.6723               613.3715                21.1729

                     58                     59                     60
                      A                      A                      A
 Frequencies --   1131.0829              1135.7550              1179.6142
 Red. masses --      4.6818                 6.3502                 1.3590
 Frc consts  --      3.5290                 4.8263                 1.1141
 IR Inten    --    208.8125               338.2441                 5.6706

                     61                     62                     63
                      A                      A                      A
 Frequencies --   1184.8479              1209.5687              1218.3945
 Red. masses --      1.0939                 1.1645                 1.4058
 Frc consts  --      0.9048                 1.0038                 1.2295
 IR Inten    --      0.3401                 0.1398               106.8524

                     64                     65                     66
                      A                      A                      A
 Frequencies --   1223.8173              1232.7989              1252.4289
 Red. masses --      2.0551                 2.6071                 2.6680
 Frc consts  --      1.8135                 2.3345                 2.4657
 IR Inten    --    131.0368               147.3659               230.2894

                     67                     68                     69
                      A                      A                      A
 Frequencies --   1257.4167              1321.1457              1351.4321
 Red. masses --      2.5047                 1.3438                 3.4255
 Frc consts  --      2.3333                 1.3819                 3.6861
 IR Inten    --     44.7418                82.1347                 0.9709

                     70                     71                     72
                      A                      A                      A
 Frequencies --   1364.9214              1376.3038              1397.4539
 Red. masses --      1.4698                 1.2195                 1.3547
 Frc consts  --      1.6133                 1.3610                 1.5587
 IR Inten    --      0.0188                13.6197                 2.5391

                     73                     74                     75
                      A                      A                      A
 Frequencies --   1399.6530              1454.8013              1469.2059
 Red. masses --      1.3591                 1.0946                 1.0941
 Frc consts  --      1.5687                 1.3650                 1.3915
 IR Inten    --      4.6654                24.3254                 4.5469

                     76                     77                     78
                      A                      A                      A
 Frequencies --   1475.8065              1484.3604              1496.5108
 Red. masses --      1.0512                 1.0483                 1.7695
 Frc consts  --      1.3489                 1.3608                 2.3348
 IR Inten    --      5.3675                 6.0830                 7.5742

                     79                     80                     81
                      A                      A                      A
 Frequencies --   1499.0936              1507.0062              1543.0932
 Red. masses --      1.1794                 1.1289                 2.1939
 Frc consts  --      1.5616                 1.5105                 3.0779
 IR Inten    --      1.6244                10.8029                20.3995

                     82                     83                     84
                      A                      A                      A
 Frequencies --   1637.2899              1658.1824              3036.2522
 Red. masses --      5.4094                 5.5619                 1.0648
 Frc consts  --      8.5438                 9.0103                 5.7835
 IR Inten    --      1.1224                13.0836                23.8960

                     85                     86                     87
                      A                      A                      A
 Frequencies --   3050.5316              3078.2241              3086.2888
 Red. masses --      1.0647                 1.0999                 1.0304
 Frc consts  --      5.8376                 6.1407                 5.7829
 IR Inten    --     81.5651                43.4271                 5.6775

                     88                     89                     90
                      A                      A                      A
 Frequencies --   3112.0903              3120.5983              3122.4460
 Red. masses --      1.0960                 1.0569                 1.0578
 Frc consts  --      6.2541                 6.0640                 6.0764
 IR Inten    --     31.0854                 5.6773                 5.7556

                     91                     92                     93
                      A                      A                      A
 Frequencies --   3176.2472              3179.4729              3182.0120
 Red. masses --      1.0862                 1.0868                 1.1064
 Frc consts  --      6.4566                 6.4728                 6.6001
 IR Inten    --     17.0648                 8.5446                 7.0330

                     94                     95                     96
                      A                      A                      A
 Frequencies --   3189.5371              3189.6250              3193.1568
 Red. masses --      1.1070                 1.0904                 1.1116
 Frc consts  --      6.6351                 6.5359                 6.6776
 IR Inten    --      5.2678                16.8723                 2.8963

                     97                     98                     99
                      A                      A                      A
 Frequencies --   3196.3977              3197.4172              3208.7527
 Red. masses --      1.0940                 1.1107                 1.0977
 Frc consts  --      6.5857                 6.6901                 6.6590
 IR Inten    --     84.2819                 6.5528                33.5624

 - Thermochemistry -
 -------------------
 Temperature   298.150 Kelvin.  Pressure   1.00000 Atm.
 Atom     1 has atomic number  6 and mass  12.00000

 Molecular mass:   302.05208 amu.
 Principal axes and moments of inertia in atomic units:
                           1         2         3
     Eigenvalues --  3380.586808440.59397**********
           X            0.99946   0.01309  -0.03005
           Y           -0.01773   0.98695  -0.16005
           Z            0.02757   0.16050   0.98665
 This molecule is an asymmetric top.
 Rotational symmetry number  1.
 Warning -- assumption of classical behavior for rotation
           may cause significant error
 Rotational temperatures (Kelvin)      0.02562     0.01026     0.00842
 Rotational constants (GHZ):           0.53385     0.21382     0.17547
 Zero-point vibrational energy     716841.0 (Joules/Mol)
                                  171.32910 (Kcal/Mol)
 Warning -- explicit consideration of  29 degrees of freedom as
           vibrations may cause significant error
 Vibrational temperatures:     18.94    52.31    63.57    86.71    95.32
          (Kelvin)            132.48   178.30   208.89   238.13   296.83
                              325.52   331.68   349.81   407.86   429.12
                              446.36   470.72   505.78   559.23   589.43
                              603.16   609.75   670.51   691.29   729.58
                              751.22   794.09   831.02   863.22   913.09
                              967.25  1028.93  1076.14  1082.13  1087.74
                             1112.74  1144.21  1191.41  1203.25  1243.72
                             1255.67  1320.44  1348.52  1401.23  1411.95
                             1416.83  1421.81  1435.67  1441.89  1460.48
                             1483.88  1487.78  1519.20  1525.84  1544.38
                             1551.44  1604.06  1627.38  1634.10  1697.20
                             1704.73  1740.30  1753.00  1760.80  1773.72
                             1801.97  1809.14  1900.83  1944.41  1963.82
                             1980.19  2010.62  2013.79  2093.13  2113.86
                             2123.36  2135.66  2153.15  2156.86  2168.25
                             2220.17  2355.70  2385.75  4368.49  4389.03
                             4428.88  4440.48  4477.60  4489.84  4492.50
                             4569.91  4574.55  4578.21  4589.03  4589.16
                             4594.24  4598.90  4600.37  4616.68

 Zero-point correction=                           0.273030 (Hartree/Particle)
 Thermal correction to Energy=                    0.291460
 Thermal correction to Enthalpy=                  0.292404
 Thermal correction to Gibbs Free Energy=         0.224527
 Sum of electronic and zero-point Energies=          -1618.732199
 Sum of electronic and thermal Energies=             -1618.713770
 Sum of electronic and thermal Enthalpies=           -1618.712826
 Sum of electronic and thermal Free Energies=        -1618.780702

                     E (Thermal)             CV                S
                      KCal/Mol        Cal/Mol-Kelvin    Cal/Mol-Kelvin
 Total                  182.894             70.826            142.857
 Electronic               0.000              0.000              0.000
 Translational            0.889              2.981             43.013
 Rotational               0.889              2.981             34.039
 Vibrational            181.116             64.864             65.805
 Vibration     1          0.593              1.987              7.465
 Vibration     2          0.594              1.982              5.448
 Vibration     3          0.595              1.980              5.062
 Vibration     4          0.597              1.973              4.448
 Vibration     5          0.598              1.970              4.262
 Vibration     6          0.602              1.955              3.615
 Vibration     7          0.610              1.929              3.038
 Vibration     8          0.617              1.908              2.734
 Vibration     9          0.624              1.885              2.486
 Vibration    10          0.641              1.831              2.076
 Vibration    11          0.650              1.801              1.909
 Vibration    12          0.652              1.794              1.875
 Vibration    13          0.659              1.774              1.780
 Vibration    14          0.682              1.704              1.513
 Vibration    15          0.691              1.677              1.427
 Vibration    16          0.699              1.654              1.361
 Vibration    17          0.711              1.621              1.274
 Vibration    18          0.728              1.572              1.159
 Vibration    19          0.757              1.494              1.005
 Vibration    20          0.774              1.449              0.928
 Vibration    21          0.782              1.428              0.895
 Vibration    22          0.786              1.418              0.879
 Vibration    23          0.823              1.325              0.749
 Vibration    24          0.837              1.293              0.709
 Vibration    25          0.862              1.234              0.641
 Vibration    26          0.877              1.201              0.605
 Vibration    27          0.907              1.135              0.540
 Vibration    28          0.934              1.080              0.490
 Vibration    29          0.958              1.032              0.450

 Optimization completed.
    -- Stationary point found.
 Normal termination of Gaussian 16 at Tue Sep 22 02:12:49 2020.

 ----------------------------------------------------------------------
 #p b3lyp/6-31G(d) scrf=(iefpcm,read,solvent=water) geom=allcheck guess
 =read
 ----------------------------------------------------------------------

 Structure from the checkpoint file:  "SM38_m1.a.12.pdb.xyz.mst.a.w.chk"
 --------------------
 SM38_m1.a.12.pdb.xyz
 --------------------
 Charge = -1 Multiplicity = 1

 SCF Done:  E(RB3LYP) =  -1619.00510006     A.U. after    7 cycles
 Normal termination of Gaussian 16 at Tue Sep 22 02:13:37 2020.

 -----------------------------
 #p B3LYP/6-31G* geom=allcheck
 -----------------------------

 Structure from the checkpoint file:  "SM38_m1.a.12.pdb.xyz.mst.a.w.chk"
 --------------------
 SM38_m1.a.12.pdb.xyz
 --------------------
 Charge = -1 Multiplicity = 1

 SCF Done:  E(RB3LYP) =  -1618.83793179     A.U. after   15 cycles

 The electronic state is 1-A.
 Alpha  occ. eigenvalues --  -88.95879 -88.92460 -19.01551 -19.01492 -18.94884
 Alpha  occ. eigenvalues --  -18.94713 -14.13368 -10.12187 -10.09448 -10.09245
 Alpha  occ. eigenvalues --  -10.09216 -10.09166 -10.09109 -10.08578 -10.08535
 Alpha  occ. eigenvalues --  -10.08472 -10.08466 -10.06836 -10.06665  -7.98959
 Alpha  occ. eigenvalues --   -7.94852  -5.95406  -5.95315  -5.95205  -5.91317
 Alpha  occ. eigenvalues --   -5.91265  -5.91225  -0.96507  -0.90568  -0.86191
 Alpha  occ. eigenvalues --   -0.78758  -0.75871  -0.74988  -0.68577  -0.67726
 Alpha  occ. eigenvalues --   -0.64159  -0.62108  -0.60327  -0.58581  -0.54569
 Alpha  occ. eigenvalues --   -0.50408  -0.49505  -0.47144  -0.44672  -0.41099
 Alpha  occ. eigenvalues --   -0.40412  -0.37440  -0.36147  -0.35974  -0.35010
 Alpha  occ. eigenvalues --   -0.34903  -0.32537  -0.32215  -0.31811  -0.31271
 Alpha  occ. eigenvalues --   -0.30816  -0.30593  -0.30048  -0.29334  -0.27596
 Alpha  occ. eigenvalues --   -0.27555  -0.26722  -0.25590  -0.25087  -0.24126
 Alpha  occ. eigenvalues --   -0.22860  -0.22798  -0.21878  -0.19470  -0.18570
 Alpha  occ. eigenvalues --   -0.16944  -0.16608  -0.16024  -0.14728  -0.14143
 Alpha  occ. eigenvalues --   -0.13213  -0.12447  -0.10946  -0.09444  -0.04962
 Alpha virt. eigenvalues --    0.09978   0.10333   0.17422   0.17888   0.18551
 Alpha virt. eigenvalues --    0.19147   0.19555   0.21180   0.22048   0.23268
 Alpha virt. eigenvalues --    0.23780   0.24454   0.25035   0.25850   0.25951

 Mulliken charges:
               1
     1  C   -0.609638
     2  S    1.094343
     3  N   -0.668393
     4  C    0.192565
     5  C   -0.502813
     6  S    1.070695
     7  C   -0.477752
     8  O   -0.545445
     9  O   -0.570947
    10  C   -0.268645
    11  C   -0.353872
    12  C    0.216541
    13  C   -0.164704
    14  C   -0.135497
    15  C   -0.134843
    16  C   -0.121709
    17  C   -0.152373
    18  O   -0.621636
    19  O   -0.619728
    20  H    0.165080
    21  H    0.160222
    22  H    0.180906
    23  H    0.179196
    24  H    0.241677
    25  H    0.168461
    26  H    0.196463
    27  H    0.176645
    28  H    0.125520
    29  H    0.122676
    30  H    0.124907
    31  H    0.114267
    32  H    0.101715
    33  H    0.098397
    34  H    0.104713
    35  H    0.113004
 Sum of Mulliken charges =  -1.00000

 Dipole moment (field-independent basis, Debye):
    X=              6.5377    Y=             -4.6927    Z=              1.9959  Tot=              8.2913
 Quadrupole moment (field-independent basis, Debye-Ang):
   XX=           -175.4112   YY=           -152.9764   ZZ=           -129.4699
   XY=             -1.2905   XZ=              4.5299   YZ=              4.1337

 Normal termination of Gaussian 16 at Tue Sep 22 02:14:34 2020.
 Gaussian 16:  ES64L-G16RevB.01 20-Dec-2017

 ----------------------------------------------------------------------
 #p mp2/aug-cc-pVDZ scf=(MaxCycle=2000,NoVarAcc,NoIncFock) maxdisk=120G
 B geom=allcheck
 ----------------------------------------------------------------------

 Structure from the checkpoint file:  "SM38_m1.a.12.pdb.xyz.mst.a.w.chk"
 --------------------
 SM38_m1.a.12.pdb.xyz
 --------------------
 Charge = -1 Multiplicity = 1

                         Standard orientation:
 ---------------------------------------------------------------------
 Center     Atomic      Atomic             Coordinates (Angstroms)
 Number     Number       Type             X           Y           Z
 ---------------------------------------------------------------------
      1          6           0        1.511961    2.700902    0.964361
      2         16           0        0.291430    2.020548   -0.173104
      3          7           0       -0.216961    0.764229    0.658588
      4          6           0       -1.085872   -0.204094    0.009285
      5          6           0       -2.319921    0.391162   -0.802826
      6         16           0       -3.465486   -0.647800    0.143154
      7          6           0       -1.954504   -0.915686    1.117889
      8          8           0       -4.528387    0.097302    0.856097
      9          8           0       -3.864541   -1.865727   -0.604107
     10          6           0       -0.366328   -1.253552   -0.879503
     11          6           0        0.689357   -2.147509   -0.184875
     12          6           0        2.082097   -1.569422   -0.017650
     13          6           0        2.605908   -1.286831    1.251678
     14          6           0        3.902942   -0.788169    1.403805
     15          6           0        4.704405   -0.563722    0.281411
     16          6           0        4.197447   -0.845539   -0.990620
     17          6           0        2.901574   -1.344982   -1.135096
     18          8           0       -0.738193    3.102421   -0.368120
     19          8           0        1.014706    1.719578   -1.457002
     20          1           0        1.029338    2.933705    1.914938
     21          1           0        1.905579    3.612894    0.509907
     22          1           0        2.313007    1.974737    1.112613
     23          1           0       -2.344679    0.199952   -1.877418
     24          1           0       -2.499712    1.444478   -0.588437
     25          1           0       -1.757412   -1.968733    1.323890
     26          1           0       -1.999931   -0.337788    2.042049
     27          1           0        0.090118   -0.721992   -1.720665
     28          1           0       -1.133312   -1.914724   -1.303422
     29          1           0        0.774865   -3.061606   -0.786975
     30          1           0        0.316054   -2.471057    0.794231
     31          1           0        1.989995   -1.458189    2.131375
     32          1           0        4.287056   -0.579639    2.399087
     33          1           0        5.713958   -0.178587    0.396450
     34          1           0        4.813604   -0.681596   -1.870968
     35          1           0        2.522023   -1.569360   -2.129663
 ---------------------------------------------------------------------

 SCF Done:  E(RHF) =  -1612.64665666     A.U. after   16 cycles
