 Gaussian 16, Revision B.01,

 ----------------------------------------------------------------------
 #p b3lyp/6-31G(d) opt freq NoSymm scf=(MaxCycle=2000,NoVarAcc,NoIncFoc
 k) scrf=(iefpcm,read,solvent=water)
 ----------------------------------------------------------------------

 -------------------
 SM38_m0.n.4.pdb.xyz
 -------------------
 Symbolic Z-matrix:
 Charge =  0 Multiplicity = 1

 SCF Done:  E(RB3LYP) =  -1619.41575140     A.U. after   13 cycles
 SCF Done:  E(RB3LYP) =  -1619.41576270     A.U. after    8 cycles
 SCF Done:  E(RB3LYP) =  -1619.41573093     A.U. after    8 cycles
 SCF Done:  E(RB3LYP) =  -1619.41572553     A.U. after    9 cycles
 SCF Done:  E(RB3LYP) =  -1619.41576101     A.U. after    9 cycles
 SCF Done:  E(RB3LYP) =  -1619.41576290     A.U. after    8 cycles
 SCF Done:  E(RB3LYP) =  -1619.41576043     A.U. after    7 cycles
 SCF Done:  E(RB3LYP) =  -1619.41575776     A.U. after    7 cycles
 SCF Done:  E(RB3LYP) =  -1619.41575898     A.U. after    6 cycles
 Optimization completed.
    -- Stationary point found.
 Normal termination of Gaussian 16 at Tue Sep 22 01:59:18 2020.

 --------------------------------------------------------------------
 #P Geom=AllCheck Guess=TCheck SCRF=Check GenChk RB3LYP/6-31G(d) Freq
 --------------------------------------------------------------------

 Structure from the checkpoint file:  "SM38_m0.n.4.pdb.xyz.mst.n.w.chk"
 -------------------
 SM38_m0.n.4.pdb.xyz
 -------------------
 Charge =  0 Multiplicity = 1

 SCF Done:  E(RB3LYP) =  -1619.41575898     A.U. after    1 cycles

  Exact polarizability: 264.713 -31.654 187.505   5.914   7.235 228.376
 Approx polarizability: 289.297 -33.583 213.338   9.405   3.781 272.235

                      1                      2                      3
                      A                      A                      A
 Frequencies --     23.1584                33.7536                46.9889
 Red. masses --      5.0708                 5.9063                 5.3110
 Frc consts  --      0.0016                 0.0040                 0.0069
 IR Inten    --      0.8699                 6.6417                 4.5124

                      4                      5                      6
                      A                      A                      A
 Frequencies --     54.3270                62.6259                87.4233
 Red. masses --      5.2635                 4.9648                 5.2027
 Frc consts  --      0.0092                 0.0115                 0.0234
 IR Inten    --      3.5499                 4.6831                 2.7731

                      7                      8                      9
                      A                      A                      A
 Frequencies --    138.9294               152.9473               161.3182
 Red. masses --      7.3146                 5.1328                 4.1489
 Frc consts  --      0.0832                 0.0707                 0.0636
 IR Inten    --      4.4394                 4.4597                 5.9725

                     10                     11                     12
                      A                      A                      A
 Frequencies --    201.2028               226.8739               244.0429
 Red. masses --      5.1495                 4.0785                 2.5518
 Frc consts  --      0.1228                 0.1237                 0.0895
 IR Inten    --      5.3232                 2.6177                 4.2829

                     13                     14                     15
                      A                      A                      A
 Frequencies --    256.6548               273.4839               299.5963
 Red. masses --      1.6499                 3.1917                 3.1974
 Frc consts  --      0.0640                 0.1406                 0.1691
 IR Inten    --      9.7669                 6.9600                 4.9715

                     16                     17                     18
                      A                      A                      A
 Frequencies --    318.5403               336.3796               345.8065
 Red. masses --      3.2661                 2.5819                 2.9676
 Frc consts  --      0.1953                 0.1721                 0.2091
 IR Inten    --      1.5750                 1.8269                 1.8542

                     19                     20                     21
                      A                      A                      A
 Frequencies --    368.0819               402.8062               421.1990
 Red. masses --      2.3672                 3.4967                 2.9997
 Frc consts  --      0.1890                 0.3343                 0.3135
 IR Inten    --      5.0447                14.3223                 0.6204

                     22                     23                     24
                      A                      A                      A
 Frequencies --    434.1324               445.5756               470.6489
 Red. masses --      2.7435                 4.7208                 4.0403
 Frc consts  --      0.3046                 0.5522                 0.5273
 IR Inten    --     81.3801                58.0419                12.8956

                     25                     26                     27
                      A                      A                      A
 Frequencies --    481.2370               503.5983               524.7074
 Red. masses --      4.7788                 4.2293                 2.2347
 Frc consts  --      0.6521                 0.6320                 0.3625
 IR Inten    --     21.4826                18.7150               133.8711

                     28                     29                     30
                      A                      A                      A
 Frequencies --    546.9508               582.6998               604.6202
 Red. masses --      4.0686                 2.6842                 5.8943
 Frc consts  --      0.7171                 0.5370                 1.2695
 IR Inten    --    128.2464                27.5442                69.3524

                     31                     32                     33
                      A                      A                      A
 Frequencies --    634.8393               712.5404               721.1643
 Red. masses --      6.3406                 2.8877                 2.1835
 Frc consts  --      1.5056                 0.8638                 0.6691
 IR Inten    --      0.1101                28.1455                23.8965

                     34                     35                     36
                      A                      A                      A
 Frequencies --    738.6105               757.3892               769.6594
 Red. masses --      4.1859                 2.8859                 4.6919
 Frc consts  --      1.3455                 0.9754                 1.6376
 IR Inten    --     97.4828                10.9421               105.9415

                     37                     38                     39
                      A                      A                      A
 Frequencies --    772.4867               797.8732               817.9665
 Red. masses --      1.9754                 3.0959                 2.3075
 Frc consts  --      0.6945                 1.1612                 0.9096
 IR Inten    --     29.9425                25.4202                37.2334

                     40                     41                     42
                      A                      A                      A
 Frequencies --    845.3397               873.5222               891.8713
 Red. masses --      2.2904                 1.2468                 2.5183
 Frc consts  --      0.9643                 0.5605                 1.1802
 IR Inten    --     16.7537                 0.3246                 3.9464

                     43                     44                     45
                      A                      A                      A
 Frequencies --    919.9170               947.1781               960.9510
 Red. masses --      1.6041                 1.7632                 2.2728
 Frc consts  --      0.7998                 0.9320                 1.2366
 IR Inten    --      2.8873                12.1766                27.8215

                     46                     47                     48
                      A                      A                      A
 Frequencies --    985.0003              1000.0958              1008.7343
 Red. masses --      1.3485                 2.0627                 1.2654
 Frc consts  --      0.7708                 1.2156                 0.7586
 IR Inten    --      0.2864                 5.6837                 1.2544

                     49                     50                     51
                      A                      A                      A
 Frequencies --   1013.3747              1015.4734              1016.8236
 Red. masses --      1.6773                 1.5678                 3.4317
 Frc consts  --      1.0149                 0.9525                 2.0905
 IR Inten    --    114.3229                 1.5367                 7.8114

                     52                     53                     54
                      A                      A                      A
 Frequencies --   1039.8910              1052.7610              1057.8970
 Red. masses --      1.8773                 1.3754                 2.1176
 Frc consts  --      1.1961                 0.8982                 1.3963
 IR Inten    --     14.9140                54.3387                 2.4443

                     55                     56                     57
                      A                      A                      A
 Frequencies --   1070.0204              1082.5725              1116.7397
 Red. masses --      1.9121                 2.7345                 3.9132
 Frc consts  --      1.2898                 1.8882                 2.8753
 IR Inten    --    116.2728               162.3851               240.7041

                     58                     59                     60
                      A                      A                      A
 Frequencies --   1120.3812              1132.2174              1191.2732
 Red. masses --      2.2268                 4.1620                 1.0975
 Frc consts  --      1.6469                 3.1435                 0.9176
 IR Inten    --     78.8346                59.1840                 0.1482

                     61                     62                     63
                      A                      A                      A
 Frequencies --   1193.4695              1206.6463              1222.2409
 Red. masses --      1.3268                 1.1339                 1.3542
 Frc consts  --      1.1135                 0.9727                 1.1919
 IR Inten    --     14.6446                 0.4001                20.4685

                     64                     65                     66
                      A                      A                      A
 Frequencies --   1230.3487              1236.6899              1263.7300
 Red. masses --      2.0931                 2.1420                 1.8844
 Frc consts  --      1.8668                 1.9302                 1.7731
 IR Inten    --     80.2385                82.2102               123.2207

                     67                     68                     69
                      A                      A                      A
 Frequencies --   1275.2484              1289.9955              1313.2847
 Red. masses --      6.1145                 7.5440                 1.5189
 Frc consts  --      5.8587                 7.3965                 1.5435
 IR Inten    --    264.5316               347.9580                53.0669

                     70                     71                     72
                      A                      A                      A
 Frequencies --   1352.7422              1363.1235              1390.2986
 Red. masses --      2.4713                 1.8169                 1.2991
 Frc consts  --      2.6645                 1.9890                 1.4795
 IR Inten    --      1.2455                 0.5605                10.6749

                     73                     74                     75
                      A                      A                      A
 Frequencies --   1391.9826              1396.4011              1448.7218
 Red. masses --      1.2613                 1.3849                 1.2061
 Frc consts  --      1.4399                 1.5911                 1.4915
 IR Inten    --      3.8295                 5.2409                62.3944

                     76                     77                     78
                      A                      A                      A
 Frequencies --   1457.7849              1471.6448              1474.3760
 Red. masses --      1.1354                 1.0967                 1.0583
 Frc consts  --      1.4216                 1.3994                 1.3554
 IR Inten    --     32.6532                 8.1972                 7.8479

                     79                     80                     81
                      A                      A                      A
 Frequencies --   1476.0641              1498.1956              1501.0882
 Red. masses --      1.0720                 1.8258                 1.1792
 Frc consts  --      1.3761                 2.4145                 1.5655
 IR Inten    --     12.3811                14.8358                11.6834

                     82                     83                     84
                      A                      A                      A
 Frequencies --   1510.0822              1543.0668              1640.7040
 Red. masses --      1.0950                 2.2354                 5.4261
 Frc consts  --      1.4712                 3.1359                 8.6060
 IR Inten    --     10.0209                17.3535                 1.9096

                     85                     86                     87
                      A                      A                      A
 Frequencies --   1661.1891              3065.1005              3074.0142
 Red. masses --      5.6515                 1.0622                 1.0613
 Frc consts  --      9.1887                 5.8798                 5.9086
 IR Inten    --      8.7645                31.3108                32.9986

                     88                     89                     90
                      A                      A                      A
 Frequencies --   3103.8792              3105.2427              3116.0723
 Red. masses --      1.0989                 1.0331                 1.1009
 Frc consts  --      6.2375                 5.8692                 6.2982
 IR Inten    --     24.2010                 5.1627                55.5650

                     91                     92                     93
                      A                      A                      A
 Frequencies --   3143.3301              3149.1106              3192.0708
 Red. masses --      1.0569                 1.0591                 1.0875
 Frc consts  --      6.1526                 6.1882                 6.5284
 IR Inten    --      1.1835                 7.7217                16.1615

                     94                     95                     96
                      A                      A                      A
 Frequencies --   3192.8429              3206.1944              3206.8247
 Red. masses --      1.0880                 1.0903                 1.1060
 Frc consts  --      6.5349                 6.6036                 6.7013
 IR Inten    --     15.4275                 7.4439                 5.6103

                     97                     98                     99
                      A                      A                      A
 Frequencies --   3215.2068              3217.2640              3222.0803
 Red. masses --      1.0934                 1.1118                 1.1071
 Frc consts  --      6.6598                 6.7804                 6.7720
 IR Inten    --     62.7115                 1.1052                 3.9943

                    100                    101                    102
                      A                      A                      A
 Frequencies --   3226.9860              3227.7338              3508.4802
 Red. masses --      1.0977                 1.1094                 1.0761
 Frc consts  --      6.7348                 6.8100                 7.8042
 IR Inten    --     32.0711                15.1048               198.0530

 - Thermochemistry -
 -------------------
 Temperature   298.150 Kelvin.  Pressure   1.00000 Atm.
 Atom     1 has atomic number  6 and mass  12.00000

 Molecular mass:   303.05990 amu.
 Principal axes and moments of inertia in atomic units:
                           1         2         3
     Eigenvalues --  3659.482128140.53925**********
           X            1.00000   0.00145  -0.00184
           Y           -0.00139   0.99958   0.02884
           Z            0.00188  -0.02883   0.99958
 This molecule is an asymmetric top.
 Rotational symmetry number  1.
 Warning -- assumption of classical behavior for rotation
           may cause significant error
 Rotational temperatures (Kelvin)      0.02367     0.01064     0.00855
 Rotational constants (GHZ):           0.49317     0.22170     0.17813
 Zero-point vibrational energy     754224.1 (Joules/Mol)
                                  180.26389 (Kcal/Mol)
 Warning -- explicit consideration of  30 degrees of freedom as
           vibrations may cause significant error
 Vibrational temperatures:     33.32    48.56    67.61    78.16    90.10
          (Kelvin)            125.78   199.89   220.06   232.10   289.49
                              326.42   351.12   369.27   393.48   431.05
                              458.31   483.98   497.54   529.59   579.55
                              606.01   624.62   641.08   677.16   692.39
                              724.57   754.94   786.94   838.38   869.91
                              913.39  1025.19  1037.59  1062.70  1089.71
                             1107.37  1111.44  1147.96  1176.87  1216.26
                             1256.80  1283.20  1323.56  1362.78  1382.59
                             1417.20  1438.91  1451.34  1458.02  1461.04
                             1462.98  1496.17  1514.69  1522.08  1539.52
                             1557.58  1606.74  1611.98  1629.01  1713.98
                             1717.14  1736.09  1758.53  1770.20  1779.32
                             1818.23  1834.80  1856.02  1889.52  1946.29
                             1961.23  2000.33  2002.75  2009.11  2084.39
                             2097.43  2117.37  2121.30  2123.73  2155.57
                             2159.73  2172.67  2220.13  2360.61  2390.08
                             4410.00  4422.82  4465.79  4467.75  4483.33
                             4522.55  4530.87  4592.68  4593.79  4613.00
                             4613.91  4625.97  4628.93  4635.85  4642.91
                             4643.99  5047.92

 Zero-point correction=                           0.287269 (Hartree/Particle)
 Thermal correction to Energy=                    0.305859
 Thermal correction to Enthalpy=                  0.306803
 Thermal correction to Gibbs Free Energy=         0.239105
 Sum of electronic and zero-point Energies=          -1619.128490
 Sum of electronic and thermal Energies=             -1619.109900
 Sum of electronic and thermal Enthalpies=           -1619.108956
 Sum of electronic and thermal Free Energies=        -1619.176654

                     E (Thermal)             CV                S
                      KCal/Mol        Cal/Mol-Kelvin    Cal/Mol-Kelvin
 Total                  191.929             71.797            142.482
 Electronic               0.000              0.000              0.000
 Translational            0.889              2.981             43.023
 Rotational               0.889              2.981             34.067
 Vibrational            190.152             65.836             65.393
 Vibration     1          0.593              1.985              6.343
 Vibration     2          0.594              1.983              5.596
 Vibration     3          0.595              1.979              4.940
 Vibration     4          0.596              1.976              4.653
 Vibration     5          0.597              1.972              4.373
 Vibration     6          0.601              1.958              3.717
 Vibration     7          0.615              1.914              2.819
 Vibration     8          0.619              1.899              2.635
 Vibration     9          0.622              1.890              2.534
 Vibration    10          0.638              1.838              2.122
 Vibration    11          0.651              1.800              1.904
 Vibration    12          0.659              1.773              1.773
 Vibration    13          0.666              1.752              1.684
 Vibration    14          0.676              1.722              1.574
 Vibration    15          0.692              1.674              1.419
 Vibration    16          0.705              1.638              1.318
 Vibration    17          0.717              1.603              1.229
 Vibration    18          0.724              1.584              1.185
 Vibration    19          0.741              1.538              1.088
 Vibration    20          0.768              1.464              0.952
 Vibration    21          0.784              1.424              0.888
 Vibration    22          0.795              1.396              0.845
 Vibration    23          0.805              1.371              0.809
 Vibration    24          0.828              1.315              0.736
 Vibration    25          0.838              1.292              0.707
 Vibration    26          0.859              1.242              0.649
 Vibration    27          0.880              1.195              0.599
 Vibration    28          0.902              1.146              0.551
 Vibration    29          0.940              1.069              0.480
 Vibration    30          0.963              1.022              0.442

 Optimization completed.
    -- Stationary point found.
 Normal termination of Gaussian 16 at Tue Sep 22 02:13:00 2020.

 ----------------------------------------------------------------------
 #p b3lyp/6-31G(d) scrf=(iefpcm,read,solvent=water) geom=allcheck guess
 =read
 ----------------------------------------------------------------------

 Structure from the checkpoint file:  "SM38_m0.n.4.pdb.xyz.mst.n.w.chk"
 -------------------
 SM38_m0.n.4.pdb.xyz
 -------------------
 Charge =  0 Multiplicity = 1

 SCF Done:  E(RB3LYP) =  -1619.41577002     A.U. after    5 cycles
 Normal termination of Gaussian 16 at Tue Sep 22 02:13:40 2020.

 -----------------------------
 #p B3LYP/6-31G* geom=allcheck
 -----------------------------

 Structure from the checkpoint file:  "SM38_m0.n.4.pdb.xyz.mst.n.w.chk"
 -------------------
 SM38_m0.n.4.pdb.xyz
 -------------------
 Charge =  0 Multiplicity = 1

 SCF Done:  E(RB3LYP) =  -1619.38305190     A.U. after   15 cycles
 Normal termination of Gaussian 16 at Tue Sep 22 02:15:02 2020.
 Gaussian 16:  ES64L-G16RevB.01 20-Dec-2017

 ----------------------------------------------------------------------
 #p mp2/aug-cc-pVDZ scf=(MaxCycle=2000,NoVarAcc,NoIncFock) maxdisk=120G
 B geom=allcheck
 ----------------------------------------------------------------------

 Structure from the checkpoint file:  "SM38_m0.n.4.pdb.xyz.mst.n.w.chk"
 -------------------
 SM38_m0.n.4.pdb.xyz
 -------------------
 Charge =  0 Multiplicity = 1

                         Standard orientation:
 ---------------------------------------------------------------------
 Center     Atomic      Atomic             Coordinates (Angstroms)
 Number     Number       Type             X           Y           Z
 ---------------------------------------------------------------------
      1          6           0       -1.270967    2.076619    1.426210
      2         16           0       -0.320477    2.236975   -0.087285
      3          7           0        0.160677    0.726169   -0.624140
      4          6           0        1.044709   -0.218657    0.084583
      5          6           0        2.312382    0.482946    0.679252
      6         16           0        3.385031   -0.718852   -0.164940
      7          6           0        1.802717   -1.076469   -0.992405
      8          8           0        4.408243   -0.112427   -1.037038
      9          8           0        3.794875   -1.820909    0.731203
     10          6           0        0.362477   -1.101238    1.152955
     11          6           0       -0.684460   -2.132103    0.677563
     12          6           0       -2.032742   -1.602466    0.232039
     13          6           0       -2.415166   -1.650139   -1.115462
     14          6           0       -3.667058   -1.185200   -1.526873
     15          6           0       -4.564690   -0.671771   -0.590524
     16          6           0       -4.202388   -0.630809    0.758715
     17          6           0       -2.949689   -1.092444    1.164214
     18          8           0       -1.222198    2.723281   -1.141296
     19          8           0        0.890862    3.008530    0.232808
     20          1           0       -2.135605    1.442950    1.232429
     21          1           0       -1.578468    3.083281    1.712874
     22          1           0       -0.637221    1.639216    2.195709
     23          1           0       -0.624301    0.267513   -1.086426
     24          1           0        2.403464    0.479483    1.765100
     25          1           0        2.478573    1.478960    0.276743
     26          1           0        1.563708   -2.137673   -1.049191
     27          1           0        1.786087   -0.613143   -1.977636
     28          1           0       -0.071044   -0.450700    1.919123
     29          1           0        1.162247   -1.659588    1.650668
     30          1           0       -0.840500   -2.815081    1.519478
     31          1           0       -0.258891   -2.740303   -0.127194
     32          1           0       -1.726887   -2.064045   -1.847133
     33          1           0       -3.940484   -1.232505   -2.576105
     34          1           0       -5.539741   -0.314399   -0.905289
     35          1           0       -4.898526   -0.245568    1.496777
     36          1           0       -2.685006   -1.068981    2.217623
 ---------------------------------------------------------------------

 SCF Done:  E(RHF) =  -1613.18462289     A.U. after   16 cycles
 E2 =    -0.2993948148D+01 EUMP2 =    -0.16161785710407D+04

 The electronic state is 1-A.
 Alpha  occ. eigenvalues --  -92.23798 -92.20278 -20.56826 -20.56516 -20.56224
 Alpha  occ. eigenvalues --  -20.56148 -15.63108 -11.35029 -11.30120 -11.29970
 Alpha  occ. eigenvalues --  -11.29334 -11.28047 -11.27765 -11.27439 -11.27222
 Alpha  occ. eigenvalues --  -11.27106 -11.26910 -11.26897 -11.26644  -9.20579
 Alpha  occ. eigenvalues --   -9.17543  -6.89116  -6.89079  -6.88961  -6.86033
 Alpha  occ. eigenvalues --   -6.85940  -6.85874  -1.46794  -1.44393  -1.34594
 Alpha  occ. eigenvalues --   -1.33111  -1.27264  -1.18704  -1.15563  -1.09838
 Alpha  occ. eigenvalues --   -1.05570  -1.04494  -1.03035  -0.99022  -0.94202
 Alpha  occ. eigenvalues --   -0.88655  -0.85811  -0.84023  -0.82294  -0.78872
 Alpha  occ. eigenvalues --   -0.74173  -0.72556  -0.72058  -0.70252  -0.68633
 Alpha  occ. eigenvalues --   -0.67086  -0.66584  -0.66322  -0.66032  -0.64047
 Alpha  occ. eigenvalues --   -0.63547  -0.63105  -0.61673  -0.61524  -0.61392
 Alpha  occ. eigenvalues --   -0.60614  -0.59375  -0.57009  -0.56643  -0.55144
 Alpha  occ. eigenvalues --   -0.53350  -0.52013  -0.51527  -0.51119  -0.50330
 Alpha  occ. eigenvalues --   -0.49924  -0.48914  -0.48126  -0.47654  -0.47156
 Alpha  occ. eigenvalues --   -0.46366  -0.44196  -0.42917  -0.36659  -0.35563
 Alpha virt. eigenvalues --    0.01813   0.02730   0.02946   0.03734   0.04228
 Alpha virt. eigenvalues --    0.04638   0.05142   0.05947   0.06280   0.06644
 Alpha virt. eigenvalues --    0.07108   0.07490   0.07931   0.08145   0.08598

 Mulliken charges:
               1
     1  C    0.305748
     2  S    2.778390
     3  N   -0.892077
     4  C   -0.202395
     5  C    0.548759
     6  S    2.897055
     7  C    0.521512
     8  O   -1.236405
     9  O   -1.278094
    10  C    0.410240
    11  C    0.436598
    12  C    0.589821
    13  C    0.757961
    14  C    0.169357
    15  C    0.698880
    16  C    0.167248
    17  C    0.578048
    18  O   -1.181685
    19  O   -1.211037
    20  H   -0.106863
    21  H   -0.076646
    22  H    0.015879
    23  H   -0.134000
    24  H   -0.309218
    25  H   -0.188345
    26  H   -0.199468
    27  H   -0.235078
    28  H   -0.174137
    29  H   -0.134637
    30  H   -0.100872
    31  H   -0.239713
    32  H   -0.742258
    33  H   -0.482324
    34  H   -0.446362
    35  H   -0.535625
    36  H   -0.768257
 Sum of Mulliken charges =  -0.00000

 Dipole moment (field-independent basis, Debye):
    X=             -8.0965    Y=             -3.2632    Z=              3.2975  Tot=              9.3314
 Quadrupole moment (field-independent basis, Debye-Ang):
   XX=           -155.6553   YY=           -146.6723   ZZ=           -121.1359
   XY=              3.9120   XZ=             -1.1228   YZ=             14.5164

 Normal termination of Gaussian 16 at Tue Sep 22 03:01:01 2020.
