 Gaussian 16, Revision B.01,

 ----------------------------------------------------------------------
 #p b3lyp/6-31G(d) opt freq NoSymm scf=(MaxCycle=2000,NoVarAcc,NoIncFoc
 k) scrf=(iefpcm,read,solvent=water)
 ----------------------------------------------------------------------

 --------------------
 SM38_m0.n.15.pdb.xyz
 --------------------
 Symbolic Z-matrix:
 Charge =  0 Multiplicity = 1

 SCF Done:  E(RB3LYP) =  -1619.41583633     A.U. after   13 cycles
 SCF Done:  E(RB3LYP) =  -1619.41570478     A.U. after   10 cycles
 SCF Done:  E(RB3LYP) =  -1619.41578637     A.U. after    9 cycles
 SCF Done:  E(RB3LYP) =  -1619.41582967     A.U. after    9 cycles
 SCF Done:  E(RB3LYP) =  -1619.41583598     A.U. after    8 cycles
 SCF Done:  E(RB3LYP) =  -1619.41583631     A.U. after    7 cycles
 SCF Done:  E(RB3LYP) =  -1619.41570666     A.U. after   10 cycles
 SCF Done:  E(RB3LYP) =  -1619.41579940     A.U. after   10 cycles
 SCF Done:  E(RB3LYP) =  -1619.41583959     A.U. after    9 cycles
 SCF Done:  E(RB3LYP) =  -1619.41582329     A.U. after    9 cycles
 SCF Done:  E(RB3LYP) =  -1619.41589784     A.U. after    8 cycles
 SCF Done:  E(RB3LYP) =  -1619.41589805     A.U. after    7 cycles
 SCF Done:  E(RB3LYP) =  -1619.41589805     A.U. after    6 cycles
 SCF Done:  E(RB3LYP) =  -1619.41589857     A.U. after    7 cycles
 SCF Done:  E(RB3LYP) =  -1619.41589901     A.U. after    8 cycles
 SCF Done:  E(RB3LYP) =  -1619.41589815     A.U. after    8 cycles
 Optimization completed on the basis of negligible forces.
    -- Stationary point found.
 Normal termination of Gaussian 16 at Mon Sep 21 08:09:56 2020.

 --------------------------------------------------------------------
 #P Geom=AllCheck Guess=TCheck SCRF=Check GenChk RB3LYP/6-31G(d) Freq
 --------------------------------------------------------------------

 Structure from the checkpoint file:  "SM38_m0.n.15.pdb.xyz.mst.n.w.chk"
 --------------------
 SM38_m0.n.15.pdb.xyz
 --------------------
 Charge =  0 Multiplicity = 1

 SCF Done:  E(RB3LYP) =  -1619.41589815     A.U. after    1 cycles

  Exact polarizability: 259.904  22.827 190.124   2.456  -0.661 224.449
 Approx polarizability: 284.094  30.292 218.899  -0.278   3.541 261.752

                      1                      2                      3
                      A                      A                      A
 Frequencies --     10.1886                33.7263                40.0272
 Red. masses --      3.8333                 4.2192                 5.7985
 Frc consts  --      0.0002                 0.0028                 0.0055
 IR Inten    --      0.3648                 6.2595                10.9611

                      4                      5                      6
                      A                      A                      A
 Frequencies --     49.5011                62.2433                85.9856
 Red. masses --      5.9690                 4.3729                 8.4884
 Frc consts  --      0.0086                 0.0100                 0.0370
 IR Inten    --      2.5478                 6.4916                 2.7453

                      7                      8                      9
                      A                      A                      A
 Frequencies --    121.6792               124.1993               178.9305
 Red. masses --      4.8285                 4.5814                 5.6890
 Frc consts  --      0.0421                 0.0416                 0.1073
 IR Inten    --      2.9550                 0.5939                12.7297

                     10                     11                     12
                      A                      A                      A
 Frequencies --    187.7824               198.2087               228.8386
 Red. masses --      3.5639                 5.4370                 1.1677
 Frc consts  --      0.0740                 0.1259                 0.0360
 IR Inten    --      4.8167                 1.1375                 0.3059

                     13                     14                     15
                      A                      A                      A
 Frequencies --    249.7550               271.9189               305.9066
 Red. masses --      4.3460                 3.7472                 3.5675
 Frc consts  --      0.1597                 0.1632                 0.1967
 IR Inten    --     13.4306                16.7515                12.6437

                     16                     17                     18
                      A                      A                      A
 Frequencies --    313.3718               321.4274               334.8270
 Red. masses --      2.3349                 2.9229                 2.8787
 Frc consts  --      0.1351                 0.1779                 0.1901
 IR Inten    --      2.0280                 7.1867                13.7784

                     19                     20                     21
                      A                      A                      A
 Frequencies --    356.1380               364.9011               373.6359
 Red. masses --      2.9356                 2.4132                 4.7780
 Frc consts  --      0.2194                 0.1893                 0.3930
 IR Inten    --      8.6831                 8.8953                34.4346

                     22                     23                     24
                      A                      A                      A
 Frequencies --    418.3630               434.0686               459.9550
 Red. masses --      2.9594                 2.4015                 4.0218
 Frc consts  --      0.3052                 0.2666                 0.5013
 IR Inten    --      0.0161               105.5189                80.5037

                     25                     26                     27
                      A                      A                      A
 Frequencies --    468.3453               500.0022               515.2189
 Red. masses --      5.7532                 5.4249                 3.9747
 Frc consts  --      0.7435                 0.7991                 0.6216
 IR Inten    --     35.1626                61.2375                58.6321

                     28                     29                     30
                      A                      A                      A
 Frequencies --    535.8925               594.4581               616.5985
 Red. masses --      4.7621                 5.7761                 3.6380
 Frc consts  --      0.8057                 1.2026                 0.8149
 IR Inten    --     40.1465                37.2571                30.5907

                     31                     32                     33
                      A                      A                      A
 Frequencies --    635.0451               711.1816               718.4352
 Red. masses --      6.3306                 3.0726                 1.9393
 Frc consts  --      1.5042                 0.9156                 0.5898
 IR Inten    --      0.1780                14.1653                24.4455

                     34                     35                     36
                      A                      A                      A
 Frequencies --    736.0995               745.8277               771.1189
 Red. masses --      4.7382                 4.2363                 1.9218
 Frc consts  --      1.5126                 1.3884                 0.6733
 IR Inten    --     15.5064                82.4471                86.0178

                     37                     38                     39
                      A                      A                      A
 Frequencies --    778.8456               808.0754               814.0522
 Red. masses --      1.4259                 1.5590                 3.8774
 Frc consts  --      0.5096                 0.5998                 1.5139
 IR Inten    --      8.4840                 4.6932                 0.9549

                     40                     41                     42
                      A                      A                      A
 Frequencies --    842.2371               859.2283               866.3120
 Red. masses --      4.1159                 3.2048                 1.2567
 Frc consts  --      1.7202                 1.3940                 0.5557
 IR Inten    --     26.1822                96.1066                 0.4394

                     43                     44                     45
                      A                      A                      A
 Frequencies --    919.1820               933.0601               958.0027
 Red. masses --      2.7514                 1.4831                 2.3689
 Frc consts  --      1.3696                 0.7608                 1.2809
 IR Inten    --     72.0029                 5.8855                29.6941

                     46                     47                     48
                      A                      A                      A
 Frequencies --    978.1319              1001.0990              1002.9753
 Red. masses --      1.3562                 1.4074                 1.3679
 Frc consts  --      0.7645                 0.8310                 0.8107
 IR Inten    --      0.0468                73.4788                20.2186

                     49                     50                     51
                      A                      A                      A
 Frequencies --   1005.2530              1017.0117              1021.7246
 Red. masses --      1.2557                 6.2361                 1.6385
 Frc consts  --      0.7476                 3.8003                 1.0078
 IR Inten    --      0.1604                 0.5403                20.1387

                     52                     53                     54
                      A                      A                      A
 Frequencies --   1050.3326              1054.7607              1062.6289
 Red. masses --      1.3072                 2.2811                 2.8897
 Frc consts  --      0.8496                 1.4952                 1.9225
 IR Inten    --      9.1931                 8.1191                56.1568

                     55                     56                     57
                      A                      A                      A
 Frequencies --   1073.0097              1083.2763              1109.6290
 Red. masses --      1.6316                 4.7225                10.1433
 Frc consts  --      1.1068                 3.2652                 7.3584
 IR Inten    --     34.8351               246.2151               309.2517

                     58                     59                     60
                      A                      A                      A
 Frequencies --   1123.1224              1172.3943              1184.9224
 Red. masses --      1.5913                 3.9770                 1.0900
 Frc consts  --      1.1827                 3.2207                 0.9017
 IR Inten    --      0.2996                32.8351                 0.2401

                     61                     62                     63
                      A                      A                      A
 Frequencies --   1192.0904              1203.8920              1227.3487
 Red. masses --      1.3024                 1.1315                 2.1359
 Frc consts  --      1.0904                 0.9662                 1.8957
 IR Inten    --      4.4250                 0.7720               110.3111

                     64                     65                     66
                      A                      A                      A
 Frequencies --   1236.4764              1238.0483              1262.4425
 Red. masses --      2.0444                 1.7258                 1.8641
 Frc consts  --      1.8416                 1.5585                 1.7504
 IR Inten    --      4.1580                20.2216                51.6533

                     67                     68                     69
                      A                      A                      A
 Frequencies --   1275.9449              1289.1093              1332.4062
 Red. masses --      5.5007                 8.0286                 1.4294
 Frc consts  --      5.2763                 7.8608                 1.4951
 IR Inten    --    343.1003               365.6875                23.8277

                     70                     71                     72
                      A                      A                      A
 Frequencies --   1343.5012              1360.8384              1370.2102
 Red. masses --      1.4063                 2.5085                 1.4120
 Frc consts  --      1.4956                 2.7370                 1.5619
 IR Inten    --     23.7471                 0.0050                 2.3914

                     73                     74                     75
                      A                      A                      A
 Frequencies --   1386.3521              1411.6253              1443.1672
 Red. masses --      1.2001                 1.4692                 1.1013
 Frc consts  --      1.3590                 1.7249                 1.3515
 IR Inten    --     14.1072                23.0835                43.1755

                     76                     77                     78
                      A                      A                      A
 Frequencies --   1459.8039              1467.5721              1472.6944
 Red. masses --      1.1166                 1.1063                 1.0467
 Frc consts  --      1.4020                 1.4039                 1.3375
 IR Inten    --     47.7435                28.6044                 6.5830

                     79                     80                     81
                      A                      A                      A
 Frequencies --   1480.1709              1498.7367              1499.1540
 Red. masses --      1.1481                 2.0745                 1.1173
 Frc consts  --      1.4820                 2.7454                 1.4794
 IR Inten    --     29.3874                 3.8269                 2.2329

                     82                     83                     84
                      A                      A                      A
 Frequencies --   1520.1074              1543.9763              1642.4699
 Red. masses --      1.0950                 2.2615                 5.5826
 Frc consts  --      1.4908                 3.1764                 8.8733
 IR Inten    --      5.4418                18.7974                 1.7524

                     85                     86                     87
                      A                      A                      A
 Frequencies --   1663.0846              3066.3438              3081.8452
 Red. masses --      5.7257                 1.0609                 1.0592
 Frc consts  --      9.3306                 5.8774                 5.9273
 IR Inten    --      8.9732                16.8829                56.5658

                     88                     89                     90
                      A                      A                      A
 Frequencies --   3108.6460              3111.2637              3131.0457
 Red. masses --      1.0300                 1.1015                 1.1050
 Frc consts  --      5.8646                 6.2821                 6.3825
 IR Inten    --      0.1530                 1.8943                56.2783

                     91                     92                     93
                      A                      A                      A
 Frequencies --   3143.2568              3158.0877              3192.0709
 Red. masses --      1.0574                 1.0577                 1.0861
 Frc consts  --      6.1554                 6.2155                 6.5201
 IR Inten    --      1.8853                 2.8525                11.6758

                     94                     95                     96
                      A                      A                      A
 Frequencies --   3193.6902              3202.3033              3208.2430
 Red. masses --      1.0878                 1.0900                 1.1070
 Frc consts  --      6.5369                 6.5858                 6.7131
 IR Inten    --     12.8643                22.4375                 0.3285

                     97                     98                     99
                      A                      A                      A
 Frequencies --   3213.5342              3217.8029              3223.1543
 Red. masses --      1.0937                 1.1116                 1.0978
 Frc consts  --      6.6547                 6.7816                 6.7193
 IR Inten    --     72.2905                 0.8452                28.1989

                    100                    101                    102
                      A                      A                      A
 Frequencies --   3223.4077              3230.8483              3534.5615
 Red. masses --      1.1081                 1.1112                 1.0760
 Frc consts  --      6.7838                 6.8340                 7.9200
 IR Inten    --      0.2484                 0.0636               134.0418

 - Thermochemistry -
 -------------------
 Temperature   298.150 Kelvin.  Pressure   1.00000 Atm.
 Atom     1 has atomic number  6 and mass  12.00000

 Molecular mass:   303.05990 amu.
 Principal axes and moments of inertia in atomic units:
                           1         2         3
     Eigenvalues --  3565.90965********************
           X            0.99997  -0.00390   0.00629
           Y            0.00394   0.99998  -0.00536
           Z           -0.00627   0.00538   0.99997
 This molecule is an asymmetric top.
 Rotational symmetry number  1.
 Warning -- assumption of classical behavior for rotation
           may cause significant error
 Rotational temperatures (Kelvin)      0.02429     0.00790     0.00660
 Rotational constants (GHZ):           0.50611     0.16467     0.13760
 Zero-point vibrational energy     752776.5 (Joules/Mol)
                                  179.91789 (Kcal/Mol)
 Warning -- explicit consideration of  30 degrees of freedom as
           vibrations may cause significant error
 Vibrational temperatures:     14.66    48.52    57.59    71.22    89.55
          (Kelvin)            123.71   175.07   178.70   257.44   270.18
                              285.18   329.25   359.34   391.23   440.13
                              450.87   462.46   481.74   512.40   525.01
                              537.58   601.93   624.53   661.77   673.84
                              719.39   741.29   771.03   855.29   887.15
                              913.69  1023.23  1033.67  1059.08  1073.08
                             1109.47  1120.59  1162.64  1171.24  1211.79
                             1236.24  1246.43  1322.50  1342.47  1378.35
                             1407.31  1440.36  1443.06  1446.33  1463.25
                             1470.03  1511.19  1517.57  1528.89  1543.82
                             1558.59  1596.51  1615.92  1686.81  1704.84
                             1715.15  1732.13  1765.88  1779.01  1781.28
                             1816.37  1835.80  1854.74  1917.04  1933.00
                             1957.94  1971.43  1994.65  2031.01  2076.40
                             2100.33  2111.51  2118.88  2129.64  2156.35
                             2156.95  2187.10  2221.44  2363.15  2392.81
                             4411.78  4434.09  4472.65  4476.41  4504.88
                             4522.45  4543.78  4592.68  4595.01  4607.40
                             4615.95  4623.56  4629.70  4637.40  4637.76
                             4648.47  5085.45

 Zero-point correction=                           0.286717 (Hartree/Particle)
 Thermal correction to Energy=                    0.305701
 Thermal correction to Enthalpy=                  0.306645
 Thermal correction to Gibbs Free Energy=         0.236854
 Sum of electronic and zero-point Energies=          -1619.129181
 Sum of electronic and thermal Energies=             -1619.110197
 Sum of electronic and thermal Enthalpies=           -1619.109253
 Sum of electronic and thermal Free Energies=        -1619.179044

                     E (Thermal)             CV                S
                      KCal/Mol        Cal/Mol-Kelvin    Cal/Mol-Kelvin
 Total                  191.830             72.361            146.887
 Electronic               0.000              0.000              0.000
 Translational            0.889              2.981             43.023
 Rotational               0.889              2.981             34.593
 Vibrational            190.053             66.400             69.271
 Vibration     1          0.593              1.987              7.974
 Vibration     2          0.594              1.983              5.597
 Vibration     3          0.594              1.981              5.258
 Vibration     4          0.595              1.978              4.837
 Vibration     5          0.597              1.972              4.385
 Vibration     6          0.601              1.959              3.749
 Vibration     7          0.609              1.931              3.074
 Vibration     8          0.610              1.929              3.034
 Vibration     9          0.629              1.868              2.340
 Vibration    10          0.632              1.857              2.250
 Vibration    11          0.637              1.842              2.150
 Vibration    12          0.652              1.797              1.888
 Vibration    13          0.663              1.763              1.732
 Vibration    14          0.675              1.725              1.584
 Vibration    15          0.696              1.662              1.384
 Vibration    16          0.701              1.648              1.344
 Vibration    17          0.707              1.632              1.303
 Vibration    18          0.716              1.606              1.237
 Vibration    19          0.732              1.563              1.139
 Vibration    20          0.738              1.544              1.101
 Vibration    21          0.745              1.526              1.065
 Vibration    22          0.781              1.430              0.898
 Vibration    23          0.795              1.396              0.845
 Vibration    24          0.818              1.339              0.766
 Vibration    25          0.826              1.320              0.742
 Vibration    26          0.855              1.250              0.658
 Vibration    27          0.870              1.216              0.621
 Vibration    28          0.891              1.171              0.574
 Vibration    29          0.952              1.044              0.459
 Vibration    30          0.976              0.997              0.422

 Optimization completed on the basis of negligible forces.
    -- Stationary point found.
 Normal termination of Gaussian 16 at Mon Sep 21 08:23:21 2020.

 ----------------------------------------------------------------------
 #p b3lyp/6-31G(d) scrf=(iefpcm,read,solvent=water) geom=allcheck guess
 =read
 ----------------------------------------------------------------------

 Structure from the checkpoint file:  "SM38_m0.n.15.pdb.xyz.mst.n.w.chk"
 --------------------
 SM38_m0.n.15.pdb.xyz
 --------------------
 Charge =  0 Multiplicity = 1

 SCF Done:  E(RB3LYP) =  -1619.41588857     A.U. after    5 cycles
 Normal termination of Gaussian 16 at Mon Sep 21 08:24:02 2020.

 -----------------------------
 #p B3LYP/6-31G* geom=allcheck
 -----------------------------

 Structure from the checkpoint file:  "SM38_m0.n.15.pdb.xyz.mst.n.w.chk"
 --------------------
 SM38_m0.n.15.pdb.xyz
 --------------------
 Charge =  0 Multiplicity = 1

 SCF Done:  E(RB3LYP) =  -1619.38250300     A.U. after   15 cycles
 Normal termination of Gaussian 16 at Mon Sep 21 08:24:58 2020.
 Gaussian 16:  ES64L-G16RevB.01 20-Dec-2017

 ----------------------------------------------------------------------
 #p mp2/aug-cc-pVDZ scf=(MaxCycle=2000,NoVarAcc,NoIncFock) maxdisk=120G
 B geom=allcheck
 ----------------------------------------------------------------------

 Structure from the checkpoint file:  "SM38_m0.n.15.pdb.xyz.mst.n.w.chk"
 --------------------
 SM38_m0.n.15.pdb.xyz
 --------------------
 Charge =  0 Multiplicity = 1

                         Standard orientation:
 ---------------------------------------------------------------------
 Center     Atomic      Atomic             Coordinates (Angstroms)
 Number     Number       Type             X           Y           Z
 ---------------------------------------------------------------------
      1          6           0        3.388005   -2.253937    1.455978
      2         16           0        3.078915   -1.497367   -0.138272
      3          7           0        1.409165   -1.350317   -0.193995
      4          6           0        0.668593   -0.081698   -0.114405
      5          6           0        0.997612    0.974679   -1.233397
      6         16           0        1.263790    2.257231    0.041842
      7          6           0        1.066899    0.791269    1.118439
      8          8           0        2.621383    2.834041    0.052190
      9          8           0        0.120642    3.187582    0.153519
     10          6           0       -0.814424   -0.509073   -0.096640
     11          6           0       -1.861928    0.610811    0.023731
     12          6           0       -3.266201    0.046123    0.022993
     13          6           0       -3.904828   -0.287819    1.224371
     14          6           0       -5.190085   -0.832592    1.225301
     15          6           0       -5.858749   -1.052232    0.019231
     16          6           0       -5.233343   -0.721867   -1.185084
     17          6           0       -3.948524   -0.176935   -1.180388
     18          8           0        3.682770   -0.154066   -0.133484
     19          8           0        3.460442   -2.462046   -1.180871
     20          1           0        3.018021   -1.595845    2.241340
     21          1           0        4.466772   -2.387511    1.546256
     22          1           0        2.876892   -3.214378    1.483411
     23          1           0        1.043783   -1.986204   -0.901734
     24          1           0        0.188996    1.217814   -1.921853
     25          1           0        1.927158    0.778401   -1.765042
     26          1           0        0.299040    0.916454    1.879250
     27          1           0        2.025793    0.536888    1.562887
     28          1           0       -0.936246   -1.207860    0.736506
     29          1           0       -1.007716   -1.072620   -1.016652
     30          1           0       -1.753236    1.316739   -0.804529
     31          1           0       -1.698463    1.174729    0.946653
     32          1           0       -3.391698   -0.114177    2.166006
     33          1           0       -5.669631   -1.080684    2.166881
     34          1           0       -6.859463   -1.472598    0.017891
     35          1           0       -5.746912   -0.883081   -2.127575
     36          1           0       -3.470587    0.083867   -2.120459
 ---------------------------------------------------------------------

 SCF Done:  E(RHF) =  -1613.18600755     A.U. after   16 cycles
 E2 =    -0.2987767973D+01 EUMP2 =    -0.16161737755251D+04

 The electronic state is 1-A.
 Alpha  occ. eigenvalues --  -92.24374 -92.19887 -20.57584 -20.57490 -20.55790
 Alpha  occ. eigenvalues --  -20.55421 -15.63602 -11.34989 -11.30417 -11.29904
 Alpha  occ. eigenvalues --  -11.29422 -11.27334 -11.26221 -11.25767 -11.25461
 Alpha  occ. eigenvalues --  -11.25445 -11.25167 -11.25162 -11.25072  -9.21201
 Alpha  occ. eigenvalues --   -9.17128  -6.89736  -6.89701  -6.89561  -6.85617
 Alpha  occ. eigenvalues --   -6.85526  -6.85466  -1.47522  -1.43830  -1.35416
 Alpha  occ. eigenvalues --   -1.32483  -1.27725  -1.17168  -1.15278  -1.08695
 Alpha  occ. eigenvalues --   -1.06159  -1.02772  -1.01805  -0.98854  -0.93982
 Alpha  occ. eigenvalues --   -0.86523  -0.84764  -0.84139  -0.80971  -0.78646
 Alpha  occ. eigenvalues --   -0.74021  -0.72365  -0.70654  -0.69951  -0.68817
 Alpha  occ. eigenvalues --   -0.68137  -0.66560  -0.65825  -0.64684  -0.63536
 Alpha  occ. eigenvalues --   -0.62912  -0.62581  -0.61538  -0.61135  -0.60186
 Alpha  occ. eigenvalues --   -0.59730  -0.58337  -0.57378  -0.56355  -0.53734
 Alpha  occ. eigenvalues --   -0.52745  -0.51480  -0.50965  -0.50119  -0.49736
 Alpha  occ. eigenvalues --   -0.49652  -0.48476  -0.48257  -0.47843  -0.47230
 Alpha  occ. eigenvalues --   -0.45900  -0.44938  -0.42046  -0.34818  -0.33979
 Alpha virt. eigenvalues --    0.01951   0.02812   0.03204   0.03756   0.03982
 Alpha virt. eigenvalues --    0.04632   0.05258   0.05644   0.05916   0.06592
 Alpha virt. eigenvalues --    0.06968   0.07211   0.07641   0.08510   0.09179

 Mulliken charges:
               1
     1  C    0.188201
     2  S    2.581452
     3  N   -1.014776
     4  C    0.746794
     5  C    0.235873
     6  S    2.960093
     7  C    0.011220
     8  O   -1.251766
     9  O   -1.274092
    10  C    0.440162
    11  C    0.775597
    12  C    1.264225
    13  C    0.501980
    14  C    0.009197
    15  C    0.650872
    16  C   -0.004446
    17  C    0.504793
    18  O   -1.194730
    19  O   -1.125576
    20  H   -0.035094
    21  H    0.048103
    22  H   -0.009345
    23  H   -0.054461
    24  H   -0.336231
    25  H   -0.315490
    26  H   -0.312496
    27  H   -0.302515
    28  H   -0.153610
    29  H   -0.217452
    30  H   -0.293146
    31  H   -0.306063
    32  H   -0.673144
    33  H   -0.462806
    34  H   -0.433225
    35  H   -0.464339
    36  H   -0.683759
 Sum of Mulliken charges =  -0.00000

 Dipole moment (field-independent basis, Debye):
    X=             -4.2333    Y=             -6.5419    Z=              2.5717  Tot=              8.2055
 Quadrupole moment (field-independent basis, Debye-Ang):
   XX=           -142.8180   YY=           -153.3622   ZZ=           -115.6853
   XY=             -6.5216   XZ=             13.8339   YZ=             -9.7837

 Normal termination of Gaussian 16 at Mon Sep 21 12:13:56 2020.
