 Gaussian 16, Revision B.01,

 ----------------------------------------------------------------------
 #p b3lyp/6-31G(d) opt freq NoSymm scf=(MaxCycle=2000,NoVarAcc,NoIncFoc
 k) scrf=(iefpcm,read,solvent=water)
 ----------------------------------------------------------------------

 -------------------
 SM38_m1.a.5.pdb.xyz
 -------------------
 Symbolic Z-matrix:
 Charge = -1 Multiplicity = 1

 SCF Done:  E(RB3LYP) =  -1619.00286742     A.U. after   13 cycles
 SCF Done:  E(RB3LYP) =  -1619.00283747     A.U. after    9 cycles
 SCF Done:  E(RB3LYP) =  -1619.00291713     A.U. after    9 cycles
 SCF Done:  E(RB3LYP) =  -1619.00288887     A.U. after    8 cycles
 SCF Done:  E(RB3LYP) =  -1619.00289471     A.U. after    7 cycles
 SCF Done:  E(RB3LYP) =  -1619.00289335     A.U. after    7 cycles
 SCF Done:  E(RB3LYP) =  -1619.00289467     A.U. after    6 cycles
 Optimization completed.
    -- Stationary point found.
 Normal termination of Gaussian 16 at Tue Sep 22 01:55:14 2020.

 --------------------------------------------------------------------
 #P Geom=AllCheck Guess=TCheck SCRF=Check GenChk RB3LYP/6-31G(d) Freq
 --------------------------------------------------------------------

 Structure from the checkpoint file:  "SM38_m1.a.5.pdb.xyz.mst.a.w.chk"
 -------------------
 SM38_m1.a.5.pdb.xyz
 -------------------
 Charge = -1 Multiplicity = 1

 SCF Done:  E(RB3LYP) =  -1619.00289467     A.U. after    1 cycles

  Exact polarizability: 248.429   5.574 248.798 -32.159  -3.116 196.686
 Approx polarizability: 267.719  -0.088 286.450 -35.571  -5.386 231.564

                      1                      2                      3
                      A                      A                      A
 Frequencies --     26.0685                27.0638                39.5938
 Red. masses --      8.2226                 5.1457                 4.8212
 Frc consts  --      0.0033                 0.0022                 0.0045
 IR Inten    --      5.2918                 1.0453                 1.4995

                      4                      5                      6
                      A                      A                      A
 Frequencies --     55.1836                56.5567                99.3450
 Red. masses --      8.8692                 4.2942                 7.0692
 Frc consts  --      0.0159                 0.0081                 0.0411
 IR Inten    --      4.6675                 1.2617                 1.8154

                      7                      8                      9
                      A                      A                      A
 Frequencies --    120.2858               144.8650               185.4079
 Red. masses --      4.8392                 6.0393                 4.9221
 Frc consts  --      0.0413                 0.0747                 0.0997
 IR Inten    --     10.0023                 3.8363                 6.5488

                     10                     11                     12
                      A                      A                      A
 Frequencies --    190.7079               221.2203               230.2326
 Red. masses --      6.7547                 1.0808                 3.7011
 Frc consts  --      0.1447                 0.0312                 0.1156
 IR Inten    --     33.4884                 0.3401                 7.7585

                     13                     14                     15
                      A                      A                      A
 Frequencies --    236.7852               283.3996               313.2585
 Red. masses --      4.1642                 4.1688                 2.4767
 Frc consts  --      0.1376                 0.1973                 0.1432
 IR Inten    --      2.2854                 2.6547                 6.3616

                     16                     17                     18
                      A                      A                      A
 Frequencies --    330.4863               345.3245               353.3625
 Red. masses --      3.7241                 2.5733                 2.6702
 Frc consts  --      0.2396                 0.1808                 0.1964
 IR Inten    --     21.2203                 5.6323                 3.5924

                     19                     20                     21
                      A                      A                      A
 Frequencies --    373.4040               400.9908               419.1808
 Red. masses --      5.2464                 3.2069                 2.9972
 Frc consts  --      0.4310                 0.3038                 0.3103
 IR Inten    --     28.9928                 8.6044                 0.3603

                     22                     23                     24
                      A                      A                      A
 Frequencies --    435.8905               452.7902               488.0105
 Red. masses --      4.8309                 3.8123                 5.4056
 Frc consts  --      0.5408                 0.4605                 0.7585
 IR Inten    --     57.0770                18.9593                29.0814

                     25                     26                     27
                      A                      A                      A
 Frequencies --    513.0949               522.7658               543.3621
 Red. masses --      4.5298                 5.2094                 5.8497
 Frc consts  --      0.7026                 0.8388                 1.0176
 IR Inten    --     11.5534                15.6705                54.1051

                     28                     29                     30
                      A                      A                      A
 Frequencies --    574.4064               582.8901               634.1320
 Red. masses --      3.4434                 4.7353                 6.3759
 Frc consts  --      0.6694                 0.9479                 1.5106
 IR Inten    --      5.7567                81.3997                 0.6903

                     31                     32                     33
                      A                      A                      A
 Frequencies --    667.4551               716.0188               735.3953
 Red. masses --      4.0657                 2.2586                 4.5598
 Frc consts  --      1.0672                 0.6822                 1.4529
 IR Inten    --     10.4807                24.8565                37.0354

                     34                     35                     36
                      A                      A                      A
 Frequencies --    741.3719               763.3912               780.5219
 Red. masses --      3.3299                 2.6982                 2.5972
 Frc consts  --      1.0783                 0.9264                 0.9322
 IR Inten    --     58.5231               115.3524                 4.1373

                     37                     38                     39
                      A                      A                      A
 Frequencies --    803.8693               814.3458               816.4835
 Red. masses --      3.1072                 1.7783                 3.7539
 Frc consts  --      1.1830                 0.6948                 1.4745
 IR Inten    --     23.5030                14.6518                56.4129

                     40                     41                     42
                      A                      A                      A
 Frequencies --    867.7064               892.8410               896.7604
 Red. masses --      1.2504                 2.3627                 2.0804
 Frc consts  --      0.5547                 1.1097                 0.9857
 IR Inten    --      0.2827                19.1090                23.9996

                     43                     44                     45
                      A                      A                      A
 Frequencies --    936.2442               970.0067               979.9601
 Red. masses --      1.5886                 2.4166                 1.3548
 Frc consts  --      0.8204                 1.3397                 0.7666
 IR Inten    --     21.2501                57.1152                 1.1220

                     46                     47                     48
                      A                      A                      A
 Frequencies --    981.9261               984.9796              1003.3692
 Red. masses --      1.3977                 1.7007                 1.2562
 Frc consts  --      0.7940                 0.9722                 0.7451
 IR Inten    --      3.0440                40.3056                 1.4075

                     49                     50                     51
                      A                      A                      A
 Frequencies --   1015.0052              1021.7018              1037.3778
 Red. masses --      5.8614                 3.0795                 1.9978
 Frc consts  --      3.5579                 1.8940                 1.2667
 IR Inten    --      0.4713                37.1950                46.7927

                     52                     53                     54
                      A                      A                      A
 Frequencies --   1048.6625              1057.8790              1064.6865
 Red. masses --      1.0992                 2.1800                 3.8557
 Frc consts  --      0.7122                 1.4374                 2.5751
 IR Inten    --      3.4962                 4.3619               423.5892

                     55                     56                     57
                      A                      A                      A
 Frequencies --   1066.9433              1074.8001              1114.1901
 Red. masses --      2.2860                 5.5799                 1.7621
 Frc consts  --      1.5332                 3.7978                 1.2889
 IR Inten    --    119.1777               371.6501                42.7495

                     58                     59                     60
                      A                      A                      A
 Frequencies --   1129.4007              1156.5336              1187.0891
 Red. masses --      8.2621                 4.8206                 1.0984
 Frc consts  --      6.2092                 3.7990                 0.9120
 IR Inten    --    434.1782               161.0610                 0.2944

                     61                     62                     63
                      A                      A                      A
 Frequencies --   1188.2279              1210.3060              1221.2249
 Red. masses --      1.3005                 1.1873                 2.0864
 Frc consts  --      1.0818                 1.0247                 1.8334
 IR Inten    --      7.6116                 4.1659                58.3445

                     64                     65                     66
                      A                      A                      A
 Frequencies --   1227.3560              1230.8739              1252.1731
 Red. masses --      2.0169                 1.8726                 3.6509
 Frc consts  --      1.7901                 1.6716                 3.3727
 IR Inten    --    237.2510               307.1565               126.2351

                     67                     68                     69
                      A                      A                      A
 Frequencies --   1261.0596              1294.9884              1347.2968
 Red. masses --      1.6820                 1.2053                 2.9797
 Frc consts  --      1.5760                 1.1909                 3.1867
 IR Inten    --     62.3442                 3.5123                 5.5458

                     70                     71                     72
                      A                      A                      A
 Frequencies --   1365.7047              1375.7131              1382.4908
 Red. masses --      1.5918                 1.2189                 1.3872
 Frc consts  --      1.7493                 1.3592                 1.5621
 IR Inten    --      0.8926                11.3795                 8.7939

                     73                     74                     75
                      A                      A                      A
 Frequencies --   1403.0885              1456.1307              1468.4872
 Red. masses --      1.3923                 1.0918                 1.0925
 Frc consts  --      1.6149                 1.3639                 1.3880
 IR Inten    --      6.5951                22.8230                16.3463

                     76                     77                     78
                      A                      A                      A
 Frequencies --   1475.5808              1483.0161              1498.1508
 Red. masses --      1.0515                 1.0479                 2.0653
 Frc consts  --      1.3489                 1.3578                 2.7312
 IR Inten    --      8.3916                 6.3037                 5.6127

                     79                     80                     81
                      A                      A                      A
 Frequencies --   1504.6735              1510.9075              1543.1588
 Red. masses --      1.0841                 1.1048                 2.1583
 Frc consts  --      1.4461                 1.4860                 3.0282
 IR Inten    --      1.1982                11.6061                20.3650

                     82                     83                     84
                      A                      A                      A
 Frequencies --   1636.8002              1658.3325              3042.1908
 Red. masses --      5.3656                 5.5139                 1.0678
 Frc consts  --      8.4695                 8.9341                 5.8228
 IR Inten    --      1.6596                11.0958                30.0646

                     85                     86                     87
                      A                      A                      A
 Frequencies --   3059.8678              3087.1210              3095.0208
 Red. masses --      1.0610                 1.0305                 1.0995
 Frc consts  --      5.8526                 5.7864                 6.2053
 IR Inten    --     58.2396                 4.6741                21.7277

                     88                     89                     90
                      A                      A                      A
 Frequencies --   3101.7871              3118.7019              3130.2718
 Red. masses --      1.0991                 1.0585                 1.0570
 Frc consts  --      6.2301                 6.0656                 6.1023
 IR Inten    --     62.4418                11.9051                 4.0961

                     91                     92                     93
                      A                      A                      A
 Frequencies --   3177.5977              3182.2535              3184.6967
 Red. masses --      1.0864                 1.1063                 1.0865
 Frc consts  --      6.4632                 6.6007                 6.4926
 IR Inten    --     15.0515                 7.9734                 0.1459

                     94                     95                     96
                      A                      A                      A
 Frequencies --   3190.6845              3193.5323              3195.4822
 Red. masses --      1.1075                 1.0909                 1.1098
 Frc consts  --      6.6429                 6.5552                 6.6767
 IR Inten    --      6.9788                34.6027                 6.0298

                     97                     98                     99
                      A                      A                      A
 Frequencies --   3200.2602              3204.3040              3210.2548
 Red. masses --      1.0936                 1.1116                 1.0977
 Frc consts  --      6.5988                 6.7245                 6.6654
 IR Inten    --     52.9104                11.8454                33.3674

 - Thermochemistry -
 -------------------
 Temperature   298.150 Kelvin.  Pressure   1.00000 Atm.
 Atom     1 has atomic number  6 and mass  12.00000

 Molecular mass:   302.05208 amu.
 Principal axes and moments of inertia in atomic units:
                           1         2         3
     Eigenvalues --  3348.430019255.57481**********
           X            0.99918   0.03922  -0.00962
           Y           -0.03970   0.99762  -0.05634
           Z            0.00739   0.05667   0.99837
 This molecule is an asymmetric top.
 Rotational symmetry number  1.
 Warning -- assumption of classical behavior for rotation
           may cause significant error
 Rotational temperatures (Kelvin)      0.02587     0.00936     0.00792
 Rotational constants (GHZ):           0.53898     0.19499     0.16499
 Zero-point vibrational energy     717141.8 (Joules/Mol)
                                  171.40101 (Kcal/Mol)
 Warning -- explicit consideration of  29 degrees of freedom as
           vibrations may cause significant error
 Vibrational temperatures:     37.51    38.94    56.97    79.40    81.37
          (Kelvin)            142.94   173.06   208.43   266.76   274.39
                              318.29   331.25   340.68   407.75   450.71
                              475.50   496.84   508.41   537.25   576.94
                              603.11   627.15   651.46   702.14   738.23
                              752.14   781.78   826.44   838.65   912.37
                              960.32  1030.19  1058.07  1066.67  1098.35
                             1123.00  1156.59  1171.66  1174.74  1248.44
                             1284.60  1290.24  1347.05  1395.62  1409.94
                             1412.77  1417.17  1443.62  1460.37  1470.00
                             1492.56  1508.79  1522.05  1531.85  1535.09
                             1546.40  1603.07  1624.96  1663.99  1707.96
                             1709.59  1741.36  1757.07  1765.89  1770.95
                             1801.60  1814.38  1863.20  1938.46  1964.94
                             1979.34  1989.10  2018.73  2095.05  2112.83
                             2123.03  2133.73  2155.50  2164.89  2173.86
                             2220.26  2354.99  2385.97  4377.03  4402.47
                             4441.68  4453.04  4462.78  4487.12  4503.76
                             4571.85  4578.55  4582.07  4590.68  4594.78
                             4597.59  4604.46  4610.28  4618.84

 Zero-point correction=                           0.273145 (Hartree/Particle)
 Thermal correction to Energy=                    0.291579
 Thermal correction to Enthalpy=                  0.292523
 Thermal correction to Gibbs Free Energy=         0.224714
 Sum of electronic and zero-point Energies=          -1618.729750
 Sum of electronic and thermal Energies=             -1618.711316
 Sum of electronic and thermal Enthalpies=           -1618.710371
 Sum of electronic and thermal Free Energies=        -1618.778180

                     E (Thermal)             CV                S
                      KCal/Mol        Cal/Mol-Kelvin    Cal/Mol-Kelvin
 Total                  182.969             70.844            142.716
 Electronic               0.000              0.000              0.000
 Translational            0.889              2.981             43.013
 Rotational               0.889              2.981             34.182
 Vibrational            181.191             64.882             65.521
 Vibration     1          0.593              1.985              6.108
 Vibration     2          0.593              1.984              6.034
 Vibration     3          0.594              1.981              5.279
 Vibration     4          0.596              1.976              4.622
 Vibration     5          0.596              1.975              4.574
 Vibration     6          0.604              1.950              3.467
 Vibration     7          0.609              1.932              3.096
 Vibration     8          0.616              1.908              2.739
 Vibration     9          0.631              1.860              2.273
 Vibration    10          0.634              1.853              2.221
 Vibration    11          0.648              1.809              1.949
 Vibration    12          0.652              1.795              1.877
 Vibration    13          0.656              1.784              1.827
 Vibration    14          0.682              1.704              1.513
 Vibration    15          0.701              1.648              1.345
 Vibration    16          0.713              1.615              1.258
 Vibration    17          0.724              1.585              1.187
 Vibration    18          0.730              1.568              1.151
 Vibration    19          0.745              1.527              1.066
 Vibration    20          0.767              1.468              0.959
 Vibration    21          0.782              1.429              0.895
 Vibration    22          0.796              1.392              0.840
 Vibration    23          0.811              1.355              0.787
 Vibration    24          0.844              1.277              0.689
 Vibration    25          0.868              1.221              0.626
 Vibration    26          0.878              1.200              0.604
 Vibration    27          0.898              1.154              0.558
 Vibration    28          0.931              1.087              0.496
 Vibration    29          0.940              1.068              0.480

                           ! Non-Optimized Parameters !
 Normal termination of Gaussian 16 at Tue Sep 22 02:07:48 2020.

 ----------------------------------------------------------------------
 #p b3lyp/6-31G(d) scrf=(iefpcm,read,solvent=water) geom=allcheck guess
 =read
 ----------------------------------------------------------------------

 Structure from the checkpoint file:  "SM38_m1.a.5.pdb.xyz.mst.a.w.chk"
 -------------------
 SM38_m1.a.5.pdb.xyz
 -------------------
 Charge = -1 Multiplicity = 1

 SCF Done:  E(RB3LYP) =  -1619.00287695     A.U. after    6 cycles
 Normal termination of Gaussian 16 at Tue Sep 22 02:08:27 2020.

 -----------------------------
 #p B3LYP/6-31G* geom=allcheck
 -----------------------------

 Structure from the checkpoint file:  "SM38_m1.a.5.pdb.xyz.mst.a.w.chk"
 -------------------
 SM38_m1.a.5.pdb.xyz
 -------------------
 Charge = -1 Multiplicity = 1

 SCF Done:  E(RB3LYP) =  -1618.83477921     A.U. after   15 cycles

 The electronic state is 1-A.
 Alpha  occ. eigenvalues --  -88.94887 -88.92477 -19.00930 -19.00124 -18.94726
 Alpha  occ. eigenvalues --  -18.94711 -14.13262 -10.11966 -10.10750 -10.10680
 Alpha  occ. eigenvalues --  -10.10610 -10.10477 -10.10153 -10.09567 -10.09038
 Alpha  occ. eigenvalues --  -10.07982 -10.07649 -10.07364 -10.07151  -7.97964
 Alpha  occ. eigenvalues --   -7.94854  -5.94413  -5.94318  -5.94212  -5.91322
 Alpha  occ. eigenvalues --   -5.91269  -5.91229  -0.95441  -0.90477  -0.85083
 Alpha  occ. eigenvalues --   -0.78683  -0.76698  -0.75141  -0.68985  -0.67787
 Alpha  occ. eigenvalues --   -0.65595  -0.62956  -0.60621  -0.57591  -0.55516
 Alpha  occ. eigenvalues --   -0.51738  -0.49940  -0.47059  -0.44099  -0.42322
 Alpha  occ. eigenvalues --   -0.40418  -0.37448  -0.37210  -0.35468  -0.35357
 Alpha  occ. eigenvalues --   -0.34733  -0.33281  -0.33171  -0.32095  -0.30973
 Alpha  occ. eigenvalues --   -0.30945  -0.30454  -0.30082  -0.29183  -0.28489
 Alpha  occ. eigenvalues --   -0.28006  -0.27345  -0.25881  -0.25526  -0.24609
 Alpha  occ. eigenvalues --   -0.24158  -0.22250  -0.21230  -0.19005  -0.17595
 Alpha  occ. eigenvalues --   -0.16394  -0.16226  -0.15732  -0.15422  -0.15017
 Alpha  occ. eigenvalues --   -0.12671  -0.12625  -0.10992  -0.09485  -0.04984
 Alpha virt. eigenvalues --    0.08317   0.08728   0.17241   0.18072   0.18778
 Alpha virt. eigenvalues --    0.19918   0.20026   0.20364   0.21968   0.22914
 Alpha virt. eigenvalues --    0.23658   0.24232   0.24508   0.25113   0.25648

 Mulliken charges:
               1
     1  C   -0.595107
     2  S    1.074669
     3  N   -0.660869
     4  C    0.205464
     5  C   -0.515633
     6  S    1.094798
     7  C   -0.519545
     8  O   -0.534643
     9  O   -0.582720
    10  C   -0.265107
    11  C   -0.375787
    12  C    0.165206
    13  C   -0.204054
    14  C   -0.129019
    15  C   -0.134372
    16  C   -0.129505
    17  C   -0.175497
    18  O   -0.612379
    19  O   -0.615910
    20  H    0.164967
    21  H    0.163245
    22  H    0.164480
    23  H    0.156955
    24  H    0.248879
    25  H    0.179187
    26  H    0.245645
    27  H    0.145285
    28  H    0.130755
    29  H    0.128863
    30  H    0.166634
    31  H    0.169443
    32  H    0.115367
    33  H    0.104768
    34  H    0.107356
    35  H    0.118182
 Sum of Mulliken charges =  -1.00000

 Dipole moment (field-independent basis, Debye):
    X=              9.2480    Y=             -4.5123    Z=              2.6866  Tot=             10.6350
 Quadrupole moment (field-independent basis, Debye-Ang):
   XX=           -172.2784   YY=           -146.9565   ZZ=           -133.2098
   XY=              4.2513   XZ=             -9.0577   YZ=              2.9611

 Normal termination of Gaussian 16 at Tue Sep 22 02:09:22 2020.
 Gaussian 16:  ES64L-G16RevB.01 20-Dec-2017

 ----------------------------------------------------------------------
 #p mp2/aug-cc-pVDZ scf=(MaxCycle=2000,NoVarAcc,NoIncFock) maxdisk=120G
 B geom=allcheck
 ----------------------------------------------------------------------

 Structure from the checkpoint file:  "SM38_m1.a.5.pdb.xyz.mst.a.w.chk"
 -------------------
 SM38_m1.a.5.pdb.xyz
 -------------------
 Charge = -1 Multiplicity = 1

                         Standard orientation:
 ---------------------------------------------------------------------
 Center     Atomic      Atomic             Coordinates (Angstroms)
 Number     Number       Type             X           Y           Z
 ---------------------------------------------------------------------
      1          6           0       -3.888749   -2.511531   -0.288563
      2         16           0       -3.076866   -0.903500   -0.315325
      3          7           0       -1.702650   -1.263927    0.394121
      4          6           0       -0.660527   -0.267839    0.583563
      5          6           0       -1.107563    1.066973    1.320860
      6         16           0       -0.500091    2.073953   -0.065948
      7          6           0       -0.127653    0.426445   -0.742780
      8          8           0       -1.576344    2.782646   -0.798381
      9          8           0        0.714786    2.854666    0.279214
     10          6           0        0.444338   -1.007861    1.378746
     11          6           0        1.781504   -0.280212    1.671262
     12          6           0        2.883931   -0.470566    0.641325
     13          6           0        3.471624    0.624692   -0.008840
     14          6           0        4.511189    0.445656   -0.927026
     15          6           0        4.985611   -0.836384   -1.210044
     16          6           0        4.412629   -1.937503   -0.565949
     17          6           0        3.375270   -1.753921    0.349509
     18          8           0       -2.978537   -0.504379   -1.764009
     19          8           0       -3.978583    0.031153    0.447615
     20          1           0       -3.292181   -3.228126   -0.855204
     21          1           0       -4.869339   -2.385746   -0.753188
     22          1           0       -4.001338   -2.842858    0.744910
     23          1           0       -0.593062    1.303721    2.254345
     24          1           0       -2.187448    1.161793    1.432595
     25          1           0        0.932237    0.305810   -0.967357
     26          1           0       -0.747042    0.219786   -1.615073
     27          1           0        0.648256   -1.944731    0.848542
     28          1           0       -0.018511   -1.292466    2.330652
     29          1           0        2.150270   -0.666873    2.630109
     30          1           0        1.618738    0.791210    1.829316
     31          1           0        3.102817    1.625537    0.199408
     32          1           0        4.948466    1.310264   -1.419739
     33          1           0        5.793686   -0.977942   -1.922548
     34          1           0        4.777150   -2.940264   -0.773574
     35          1           0        2.946967   -2.619253    0.850445
 ---------------------------------------------------------------------

 SCF Done:  E(RHF) =  -1612.64024723     A.U. after   15 cycles
