 Gaussian 16, Revision B.01,

 ----------------------------------------------------------------------
 #p b3lyp/6-31G(d) opt freq NoSymm scf=(MaxCycle=2000,NoVarAcc,NoIncFoc
 k) scrf=(iefpcm,read,solvent=water)
 ----------------------------------------------------------------------

 --------------------
 SM38_m1.a.14.pdb.xyz
 --------------------
 Symbolic Z-matrix:
 Charge = -1 Multiplicity = 1

 SCF Done:  E(RB3LYP) =  -1619.00578827     A.U. after   13 cycles
 SCF Done:  E(RB3LYP) =  -1619.00580445     A.U. after    8 cycles
 SCF Done:  E(RB3LYP) =  -1619.00579079     A.U. after    8 cycles
 SCF Done:  E(RB3LYP) =  -1619.00579189     A.U. after    8 cycles
 SCF Done:  E(RB3LYP) =  -1619.00579212     A.U. after    8 cycles
 SCF Done:  E(RB3LYP) =  -1619.00579223     A.U. after    7 cycles
 Optimization completed.
    -- Stationary point found.
 Normal termination of Gaussian 16 at Tue Sep 22 01:54:44 2020.

 --------------------------------------------------------------------
 #P Geom=AllCheck Guess=TCheck SCRF=Check GenChk RB3LYP/6-31G(d) Freq
 --------------------------------------------------------------------

 Structure from the checkpoint file:  "SM38_m1.a.14.pdb.xyz.mst.a.w.chk"
 --------------------
 SM38_m1.a.14.pdb.xyz
 --------------------
 Charge = -1 Multiplicity = 1

 SCF Done:  E(RB3LYP) =  -1619.00579223     A.U. after    1 cycles

  Exact polarizability: 263.995 -26.038 209.119   9.614  23.851 227.226
 Approx polarizability: 283.601 -33.053 232.519   7.428  28.497 275.496

                      1                      2                      3
                      A                      A                      A
 Frequencies --      2.7243                26.3613                41.9064
 Red. masses --      5.5056                 6.1972                 4.9581
 Frc consts  --      0.0000                 0.0025                 0.0051
 IR Inten    --      8.9872                 2.8267                 0.8407

                      4                      5                      6
                      A                      A                      A
 Frequencies --     55.9166                57.5855                88.1323
 Red. masses --      4.9875                 5.9050                 4.5747
 Frc consts  --      0.0092                 0.0115                 0.0209
 IR Inten    --      1.9678                12.0489                 6.1923

                      7                      8                      9
                      A                      A                      A
 Frequencies --    115.5560               135.1614               177.1816
 Red. masses --      5.9973                 6.2456                 4.5030
 Frc consts  --      0.0472                 0.0672                 0.0833
 IR Inten    --      2.0890                 1.8654                 8.5773

                     10                     11                     12
                      A                      A                      A
 Frequencies --    197.7720               239.0205               260.3288
 Red. masses --      5.3497                 5.8053                 1.2463
 Frc consts  --      0.1233                 0.1954                 0.0498
 IR Inten    --      3.6301                 6.9008                 2.5298

                     13                     14                     15
                      A                      A                      A
 Frequencies --    273.5617               277.0538               307.8640
 Red. masses --      3.0469                 2.9336                 3.8433
 Frc consts  --      0.1343                 0.1327                 0.2146
 IR Inten    --      9.3610                 1.6637                 3.3672

                     16                     17                     18
                      A                      A                      A
 Frequencies --    316.1206               344.7314               355.2713
 Red. masses --      4.3482                 2.9236                 3.0852
 Frc consts  --      0.2560                 0.2047                 0.2294
 IR Inten    --      1.5499                 8.5454                15.1509

                     19                     20                     21
                      A                      A                      A
 Frequencies --    369.5967               398.1808               420.0656
 Red. masses --      2.5443                 2.7414                 3.0071
 Frc consts  --      0.2048                 0.2561                 0.3126
 IR Inten    --      3.1324                 9.3133                 1.0750

                     22                     23                     24
                      A                      A                      A
 Frequencies --    424.1098               456.7247               475.9679
 Red. masses --      4.6756                 5.2837                 5.1788
 Frc consts  --      0.4955                 0.6494                 0.6913
 IR Inten    --     38.1415                75.9634                24.4270

                     25                     26                     27
                      A                      A                      A
 Frequencies --    501.0617               523.5334               533.9388
 Red. masses --      4.0416                 7.6673                 4.4662
 Frc consts  --      0.5978                 1.2382                 0.7502
 IR Inten    --     32.3098                73.8797                17.4188

                     28                     29                     30
                      A                      A                      A
 Frequencies --    576.4224               619.3175               634.4515
 Red. masses --      2.8082                 5.3349                 6.3120
 Frc consts  --      0.5497                 1.2056                 1.4970
 IR Inten    --      7.2614                43.7303                 0.4919

                     31                     32                     33
                      A                      A                      A
 Frequencies --    668.9093               717.4135               718.7899
 Red. masses --      5.4634                 1.9847                 4.7840
 Frc consts  --      1.4403                 0.6018                 1.4563
 IR Inten    --     39.8959                53.5258               138.3911

                     34                     35                     36
                      A                      A                      A
 Frequencies --    750.9955               758.3216               775.8367
 Red. masses --      5.1479                 2.0246                 2.9821
 Frc consts  --      1.7106                 0.6860                 1.0576
 IR Inten    --     84.7537                51.2808                 8.7530

                     37                     38                     39
                      A                      A                      A
 Frequencies --    787.1538               829.6124               840.2363
 Red. masses --      2.7640                 1.6244                 3.6561
 Frc consts  --      1.0090                 0.6587                 1.5208
 IR Inten    --     22.1724                 1.8262                63.3852

                     40                     41                     42
                      A                      A                      A
 Frequencies --    866.7080               880.6664               906.0611
 Red. masses --      1.2538                 2.3122                 2.4124
 Frc consts  --      0.5549                 1.0566                 1.1669
 IR Inten    --      0.2563                 7.3332                54.0495

                     43                     44                     45
                      A                      A                      A
 Frequencies --    935.1175               972.6310               975.2797
 Red. masses --      1.6382                 1.7024                 1.7740
 Frc consts  --      0.8440                 0.9489                 0.9942
 IR Inten    --      2.8470                25.1351                55.4939

                     46                     47                     48
                      A                      A                      A
 Frequencies --    977.1304               979.7421              1002.3068
 Red. masses --      1.3648                 1.4709                 1.2495
 Frc consts  --      0.7677                 0.8319                 0.7396
 IR Inten    --      1.4398                13.7184                 1.0625

                     49                     50                     51
                      A                      A                      A
 Frequencies --   1014.4094              1016.1289              1024.7377
 Red. masses --      3.0602                 2.8947                 2.8748
 Frc consts  --      1.8554                 1.7610                 1.7786
 IR Inten    --     10.4174                15.0399                24.9317

                     52                     53                     54
                      A                      A                      A
 Frequencies --   1041.8091              1055.3335              1058.5051
 Red. masses --      1.3582                 2.5128                 2.1317
 Frc consts  --      0.8686                 1.6489                 1.4072
 IR Inten    --    101.1979               142.4248                12.4102

                     55                     56                     57
                      A                      A                      A
 Frequencies --   1074.7436              1087.7240              1112.0843
 Red. masses --      2.7769                 3.6056                 1.9713
 Frc consts  --      1.8898                 2.5134                 1.4364
 IR Inten    --     82.8768               603.1275               140.0839

                     58                     59                     60
                      A                      A                      A
 Frequencies --   1141.1833              1181.1241              1185.1582
 Red. masses --      3.2634                 5.7625                 1.3018
 Frc consts  --      2.5040                 4.7365                 1.0774
 IR Inten    --    132.8026               397.8867                26.6278

                     61                     62                     63
                      A                      A                      A
 Frequencies --   1185.6875              1200.7516              1209.8636
 Red. masses --      1.2063                 1.4934                 1.1812
 Frc consts  --      0.9992                 1.2686                 1.0187
 IR Inten    --     16.0119                86.4675                 0.9602

                     64                     65                     66
                      A                      A                      A
 Frequencies --   1228.7027              1241.6722              1249.9530
 Red. masses --      2.3388                 1.6785                 6.5126
 Frc consts  --      2.0804                 1.5247                 5.9951
 IR Inten    --      7.9666                43.1087               404.4869

                     67                     68                     69
                      A                      A                      A
 Frequencies --   1267.9945              1300.0160              1350.8246
 Red. masses --      2.2168                 1.3347                 3.9698
 Frc consts  --      2.1000                 1.3290                 4.2679
 IR Inten    --     99.8522                26.0706                 0.8151

                     70                     71                     72
                      A                      A                      A
 Frequencies --   1366.5813              1369.1489              1382.2928
 Red. masses --      1.3813                 1.2491                 1.3212
 Frc consts  --      1.5199                 1.3796                 1.4874
 IR Inten    --      3.3340                12.1051                12.3850

                     73                     74                     75
                      A                      A                      A
 Frequencies --   1401.3293              1454.5125              1467.9817
 Red. masses --      1.3855                 1.0923                 1.0947
 Frc consts  --      1.6030                 1.3615                 1.3900
 IR Inten    --      9.8961                21.5668                 1.7057

                     76                     77                     78
                      A                      A                      A
 Frequencies --   1481.4933              1487.1680              1496.3064
 Red. masses --      1.0520                 1.0521                 2.0620
 Frc consts  --      1.3604                 1.3709                 2.7201
 IR Inten    --      3.7065                 6.4727                 8.3043

                     79                     80                     81
                      A                      A                      A
 Frequencies --   1497.9508              1510.3493              1543.3359
 Red. masses --      1.0862                 1.1363                 2.1837
 Frc consts  --      1.4360                 1.5272                 3.0646
 IR Inten    --      8.4586                 7.6957                18.2560

                     82                     83                     84
                      A                      A                      A
 Frequencies --   1636.4208              1658.2320              3041.9001
 Red. masses --      5.3836                 5.5379                 1.0690
 Frc consts  --      8.4940                 8.9719                 5.8281
 IR Inten    --      1.2673                10.2429                42.7140

                     85                     86                     87
                      A                      A                      A
 Frequencies --   3050.5927              3078.3573              3111.3129
 Red. masses --      1.0672                 1.0304                 1.0946
 Frc consts  --      5.8516                 5.7531                 6.2433
 IR Inten    --     52.1000                 8.3523                23.1571

                     88                     89                     90
                      A                      A                      A
 Frequencies --   3116.9108              3119.6385              3128.4552
 Red. masses --      1.0569                 1.0952                 1.0583
 Frc consts  --      6.0495                 6.2797                 6.1029
 IR Inten    --      5.1702                38.5163                 2.8389

                     91                     92                     93
                      A                      A                      A
 Frequencies --   3171.2645              3174.8067              3179.2807
 Red. masses --      1.1060                 1.0870                 1.1070
 Frc consts  --      6.5533                 6.4550                 6.5926
 IR Inten    --     13.8072                17.6629                13.0045

                     94                     95                     96
                      A                      A                      A
 Frequencies --   3182.4448              3191.1656              3191.8140
 Red. masses --      1.0860                 1.0902                 1.1113
 Frc consts  --      6.4804                 6.5409                 6.6704
 IR Inten    --      2.3518                20.7637                 1.1283

                     97                     98                     99
                      A                      A                      A
 Frequencies --   3197.7556              3207.8868              3209.3055
 Red. masses --      1.0939                 1.1099                 1.0977
 Frc consts  --      6.5908                 6.7295                 6.6615
 IR Inten    --     80.6016                 0.6893                33.5819

 - Thermochemistry -
 -------------------
 Temperature   298.150 Kelvin.  Pressure   1.00000 Atm.
 Atom     1 has atomic number  6 and mass  12.00000

 Molecular mass:   302.05208 amu.
 Principal axes and moments of inertia in atomic units:
                           1         2         3
     Eigenvalues --  4920.408736940.55598**********
           X            0.99868  -0.05128   0.00431
           Y            0.05135   0.99848  -0.02005
           Z           -0.00327   0.02025   0.99979
 This molecule is an asymmetric top.
 Rotational symmetry number  1.
 Warning -- assumption of classical behavior for rotation
           may cause significant error
 Rotational temperatures (Kelvin)      0.01760     0.01248     0.00862
 Rotational constants (GHZ):           0.36679     0.26003     0.17958
 Zero-point vibrational energy     717059.2 (Joules/Mol)
                                  171.38126 (Kcal/Mol)
 Warning -- explicit consideration of  29 degrees of freedom as
           vibrations may cause significant error
 Vibrational temperatures:      3.92    37.93    60.29    80.45    82.85
          (Kelvin)            126.80   166.26   194.47   254.92   284.55
                              343.90   374.56   393.59   398.62   442.95
                              454.83   495.99   511.16   531.77   572.89
                              604.38   610.20   657.13   684.81   720.92
                              753.25   768.22   829.34   891.06   912.83
                              962.41  1032.20  1034.18  1080.51  1091.06
                             1116.26  1132.54  1193.63  1208.91  1247.00
                             1267.08  1303.62  1345.43  1399.40  1403.21
                             1405.87  1409.63  1442.10  1459.51  1461.98
                             1474.37  1498.93  1518.39  1522.95  1546.32
                             1564.99  1600.04  1641.91  1699.37  1705.18
                             1705.94  1727.61  1740.72  1767.83  1786.49
                             1798.40  1824.36  1870.43  1943.54  1966.21
                             1969.90  1988.81  2016.20  2092.72  2112.10
                             2131.54  2139.70  2152.85  2155.22  2173.06
                             2220.52  2354.44  2385.83  4376.62  4389.12
                             4429.07  4476.49  4484.54  4488.46  4501.15
                             4562.74  4567.84  4574.28  4578.83  4591.38
                             4592.31  4600.86  4615.43  4617.47

 Zero-point correction=                           0.273113 (Hartree/Particle)
 Thermal correction to Energy=                    0.291571
 Thermal correction to Enthalpy=                  0.292515
 Thermal correction to Gibbs Free Energy=         0.222600
 Sum of electronic and zero-point Energies=          -1618.732679
 Sum of electronic and thermal Energies=             -1618.714221
 Sum of electronic and thermal Enthalpies=           -1618.713277
 Sum of electronic and thermal Free Energies=        -1618.783193

                     E (Thermal)             CV                S
                      KCal/Mol        Cal/Mol-Kelvin    Cal/Mol-Kelvin
 Total                  182.964             70.805            147.150
 Electronic               0.000              0.000              0.000
 Translational            0.889              2.981             43.013
 Rotational               0.889              2.981             34.195
 Vibrational            181.186             64.843             69.942
 Vibration     1          0.592              1.987             10.595
 Vibration     2          0.593              1.985              6.086
 Vibration     3          0.595              1.980              5.167
 Vibration     4          0.596              1.975              4.596
 Vibration     5          0.596              1.974              4.538
 Vibration     6          0.601              1.958              3.701
 Vibration     7          0.608              1.937              3.173
 Vibration     8          0.613              1.918              2.871
 Vibration     9          0.628              1.870              2.358
 Vibration    10          0.637              1.843              2.154
 Vibration    11          0.657              1.781              1.810
 Vibration    12          0.668              1.745              1.660
 Vibration    13          0.676              1.722              1.574
 Vibration    14          0.678              1.716              1.552
 Vibration    15          0.698              1.659              1.374
 Vibration    16          0.703              1.643              1.330
 Vibration    17          0.723              1.586              1.190
 Vibration    18          0.731              1.564              1.143
 Vibration    19          0.742              1.535              1.081
 Vibration    20          0.764              1.474              0.969
 Vibration    21          0.783              1.427              0.892
 Vibration    22          0.786              1.418              0.878
 Vibration    23          0.815              1.346              0.776
 Vibration    24          0.833              1.303              0.721
 Vibration    25          0.856              1.248              0.655
 Vibration    26          0.878              1.198              0.602
 Vibration    27          0.889              1.175              0.578
 Vibration    28          0.933              1.082              0.492
 Vibration    29          0.979              0.991              0.418

                           ! Non-Optimized Parameters !
 Normal termination of Gaussian 16 at Tue Sep 22 02:08:40 2020.

 ----------------------------------------------------------------------
 #p b3lyp/6-31G(d) scrf=(iefpcm,read,solvent=water) geom=allcheck guess
 =read
 ----------------------------------------------------------------------

 Structure from the checkpoint file:  "SM38_m1.a.14.pdb.xyz.mst.a.w.chk"
 --------------------
 SM38_m1.a.14.pdb.xyz
 --------------------
 Charge = -1 Multiplicity = 1

 SCF Done:  E(RB3LYP) =  -1619.00580617     A.U. after    7 cycles
 Normal termination of Gaussian 16 at Tue Sep 22 02:09:28 2020.

 -----------------------------
 #p B3LYP/6-31G* geom=allcheck
 -----------------------------

 Structure from the checkpoint file:  "SM38_m1.a.14.pdb.xyz.mst.a.w.chk"
 --------------------
 SM38_m1.a.14.pdb.xyz
 --------------------
 Charge = -1 Multiplicity = 1

 SCF Done:  E(RB3LYP) =  -1618.84049211     A.U. after   15 cycles

 The electronic state is 1-A.
 Alpha  occ. eigenvalues --  -88.96489 -88.93057 -19.02208 -19.02044 -18.95868
 Alpha  occ. eigenvalues --  -18.95077 -14.14143 -10.12582 -10.09979 -10.09887
 Alpha  occ. eigenvalues --  -10.09754 -10.09547 -10.09450 -10.09370 -10.09218
 Alpha  occ. eigenvalues --  -10.08521 -10.07432 -10.07127 -10.06647  -7.99573
 Alpha  occ. eigenvalues --   -7.95401  -5.96019  -5.95927  -5.95821  -5.91887
 Alpha  occ. eigenvalues --   -5.91817  -5.91769  -0.97111  -0.91478  -0.86789
 Alpha  occ. eigenvalues --   -0.80027  -0.76380  -0.75475  -0.68815  -0.67710
 Alpha  occ. eigenvalues --   -0.64638  -0.62270  -0.60644  -0.59125  -0.54697
 Alpha  occ. eigenvalues --   -0.50783  -0.50138  -0.47288  -0.45182  -0.41730
 Alpha  occ. eigenvalues --   -0.40477  -0.37342  -0.36757  -0.36501  -0.36003
 Alpha  occ. eigenvalues --   -0.35352  -0.33219  -0.32451  -0.32037  -0.31656
 Alpha  occ. eigenvalues --   -0.31508  -0.31058  -0.30467  -0.29784  -0.28865
 Alpha  occ. eigenvalues --   -0.27863  -0.26958  -0.26131  -0.24994  -0.24640
 Alpha  occ. eigenvalues --   -0.23323  -0.22706  -0.21673  -0.19694  -0.19136
 Alpha  occ. eigenvalues --   -0.17465  -0.16972  -0.16413  -0.15386  -0.14448
 Alpha  occ. eigenvalues --   -0.14166  -0.12381  -0.11775  -0.08693  -0.07268
 Alpha virt. eigenvalues --    0.09298   0.09668   0.17033   0.17295   0.18313
 Alpha virt. eigenvalues --    0.18433   0.19008   0.20880   0.22088   0.23432
 Alpha virt. eigenvalues --    0.23943   0.24500   0.24777   0.25273   0.25647

 Mulliken charges:
               1
     1  C   -0.617447
     2  S    1.097604
     3  N   -0.641971
     4  C    0.197557
     5  C   -0.478644
     6  S    1.069565
     7  C   -0.495811
     8  O   -0.547890
     9  O   -0.564724
    10  C   -0.276052
    11  C   -0.341999
    12  C    0.152355
    13  C   -0.183651
    14  C   -0.131499
    15  C   -0.135957
    16  C   -0.129439
    17  C   -0.180784
    18  O   -0.601670
    19  O   -0.632379
    20  H    0.163395
    21  H    0.167622
    22  H    0.144834
    23  H    0.199747
    24  H    0.198071
    25  H    0.176998
    26  H    0.192119
    27  H    0.128150
    28  H    0.159263
    29  H    0.114798
    30  H    0.194540
    31  H    0.171333
    32  H    0.112350
    33  H    0.101082
    34  H    0.104604
    35  H    0.113929
 Sum of Mulliken charges =  -1.00000

 Dipole moment (field-independent basis, Debye):
    X=             -4.5639    Y=              1.5787    Z=              1.4027  Tot=              5.0288
 Quadrupole moment (field-independent basis, Debye-Ang):
   XX=           -142.0403   YY=           -181.7916   ZZ=           -136.3143
   XY=             15.8853   XZ=              5.0102   YZ=              1.9668

 Normal termination of Gaussian 16 at Tue Sep 22 02:10:24 2020.
 Gaussian 16:  ES64L-G16RevB.01 20-Dec-2017

 ----------------------------------------------------------------------
 #p mp2/aug-cc-pVDZ scf=(MaxCycle=2000,NoVarAcc,NoIncFock) maxdisk=120G
 B geom=allcheck
 ----------------------------------------------------------------------

 Structure from the checkpoint file:  "SM38_m1.a.14.pdb.xyz.mst.a.w.chk"
 --------------------
 SM38_m1.a.14.pdb.xyz
 --------------------
 Charge = -1 Multiplicity = 1

                         Standard orientation:
 ---------------------------------------------------------------------
 Center     Atomic      Atomic             Coordinates (Angstroms)
 Number     Number       Type             X           Y           Z
 ---------------------------------------------------------------------
      1          6           0        4.003200   -0.767269   -0.274875
      2         16           0        2.395241   -1.609194   -0.150718
      3          7           0        1.234331   -0.653924   -0.663590
      4          6           0        0.670256    0.403364    0.159118
      5          6           0       -0.333713    1.218240   -0.748417
      6         16           0        0.396613    2.788277   -0.200174
      7          6           0        1.634971    1.634950    0.457176
      8          8           0        0.885264    3.657070   -1.295652
      9          8           0       -0.401904    3.425472    0.875592
     10          6           0       -0.001746   -0.033383    1.489729
     11          6           0       -0.933430   -1.263048    1.429816
     12          6           0       -2.194054   -1.124436    0.599277
     13          6           0       -2.293342   -1.717129   -0.668380
     14          6           0       -3.456759   -1.594397   -1.432808
     15          6           0       -4.547183   -0.873319   -0.940471
     16          6           0       -4.464626   -0.279422    0.322712
     17          6           0       -3.300508   -0.407945    1.083533
     18          8           0        2.494017   -2.734462   -1.126637
     19          8           0        2.326452   -2.033672    1.285123
     20          1           0        4.141032   -0.405457   -1.295864
     21          1           0        4.782502   -1.491262   -0.024354
     22          1           0        4.040845    0.065858    0.429749
     23          1           0       -1.397067    1.134644   -0.529492
     24          1           0       -0.135452    1.072140   -1.811458
     25          1           0        1.911279    1.825500    1.496163
     26          1           0        2.509483    1.655324   -0.194215
     27          1           0       -0.547682    0.825707    1.901507
     28          1           0        0.795971   -0.270996    2.199511
     29          1           0       -1.219365   -1.489275    2.465592
     30          1           0       -0.351295   -2.116511    1.073338
     31          1           0       -1.445036   -2.272064   -1.061113
     32          1           0       -3.510877   -2.063966   -2.411651
     33          1           0       -5.453705   -0.777943   -1.531991
     34          1           0       -5.309658    0.278027    0.718501
     35          1           0       -3.250006    0.049915    2.069302
 ---------------------------------------------------------------------

 SCF Done:  E(RHF) =  -1612.64918564     A.U. after   16 cycles
