 Gaussian 16, Revision B.01,

 ----------------------------------------------------------------------
 #p b3lyp/6-31G(d) opt freq NoSymm scf=(MaxCycle=2000,NoVarAcc,NoIncFoc
 k) scrf=(iefpcm,read,solvent=water)
 ----------------------------------------------------------------------

 --------------------
 SM38_m0.n.11.pdb.xyz
 --------------------
 Symbolic Z-matrix:
 Charge =  0 Multiplicity = 1

 SCF Done:  E(RB3LYP) =  -1619.41593596     A.U. after   13 cycles
 SCF Done:  E(RB3LYP) =  -1619.41578675     A.U. after   10 cycles
 SCF Done:  E(RB3LYP) =  -1619.41589792     A.U. after   10 cycles
 SCF Done:  E(RB3LYP) =  -1619.41594697     A.U. after    9 cycles
 SCF Done:  E(RB3LYP) =  -1619.41590598     A.U. after   10 cycles
 SCF Done:  E(RB3LYP) =  -1619.41587833     A.U. after    9 cycles
 SCF Done:  E(RB3LYP) =  -1619.41594328     A.U. after    9 cycles
 SCF Done:  E(RB3LYP) =  -1619.41594791     A.U. after    8 cycles
 SCF Done:  E(RB3LYP) =  -1619.41584324     A.U. after   10 cycles
 SCF Done:  E(RB3LYP) =  -1619.41586474     A.U. after    9 cycles
 SCF Done:  E(RB3LYP) =  -1619.41593126     A.U. after    3 cycles
 SCF Done:  E(RB3LYP) =  -1619.41593125     A.U. after    2 cycles
 SCF Done:  E(RB3LYP) =  -1619.41585416     A.U. after   10 cycles
 SCF Done:  E(RB3LYP) =  -1619.41585612     A.U. after    8 cycles
 SCF Done:  E(RB3LYP) =  -1619.41585769     A.U. after    7 cycles
 SCF Done:  E(RB3LYP) =  -1619.41585718     A.U. after    6 cycles
 Optimization completed.
    -- Stationary point found.
 Normal termination of Gaussian 16 at Mon Sep 21 08:14:11 2020.

 --------------------------------------------------------------------
 #P Geom=AllCheck Guess=TCheck SCRF=Check GenChk RB3LYP/6-31G(d) Freq
 --------------------------------------------------------------------

 Structure from the checkpoint file:  "SM38_m0.n.11.pdb.xyz.mst.n.w.chk"
 --------------------
 SM38_m0.n.11.pdb.xyz
 --------------------
 Charge =  0 Multiplicity = 1

 SCF Done:  E(RB3LYP) =  -1619.41585718     A.U. after    1 cycles

  Exact polarizability: 261.590 -22.282 190.419   0.444  -0.791 223.259
 Approx polarizability: 285.445 -29.899 211.426  -0.650  -3.184 268.944

                      1                      2                      3
                      A                      A                      A
 Frequencies --     17.8176                23.6515                33.9095
 Red. masses --      3.8192                 4.5186                 6.9807
 Frc consts  --      0.0007                 0.0015                 0.0047
 IR Inten    --      0.2028                 6.4275                 5.9455

                      4                      5                      6
                      A                      A                      A
 Frequencies --     43.1813                63.7130                95.2223
 Red. masses --      6.2210                 7.5542                 3.9492
 Frc consts  --      0.0068                 0.0181                 0.0211
 IR Inten    --      4.2776                 2.3266                 2.9497

                      7                      8                      9
                      A                      A                      A
 Frequencies --    119.9319               131.4063               188.7504
 Red. masses --      5.5920                 4.8398                 5.6494
 Frc consts  --      0.0474                 0.0492                 0.1186
 IR Inten    --      5.3881                 0.4389                18.1635

                     10                     11                     12
                      A                      A                      A
 Frequencies --    190.6731               198.5327               223.9047
 Red. masses --      4.2310                 6.6793                 3.8550
 Frc consts  --      0.0906                 0.1551                 0.1139
 IR Inten    --      5.7375                 2.7372                 0.4545

                     13                     14                     15
                      A                      A                      A
 Frequencies --    232.2973               276.5987               300.0868
 Red. masses --      1.0554                 4.2672                 2.9785
 Frc consts  --      0.0336                 0.1923                 0.1580
 IR Inten    --      0.9196                 7.6606                 8.0080

                     16                     17                     18
                      A                      A                      A
 Frequencies --    310.0814               336.6430               349.3545
 Red. masses --      3.5341                 3.9666                 3.2126
 Frc consts  --      0.2002                 0.2649                 0.2310
 IR Inten    --      5.2341                 8.6141                 7.1763

                     19                     20                     21
                      A                      A                      A
 Frequencies --    373.3540               388.6437               406.6102
 Red. masses --      2.4209                 4.9387                 3.7115
 Frc consts  --      0.1988                 0.4395                 0.3615
 IR Inten    --      4.3969                60.2815                13.3832

                     22                     23                     24
                      A                      A                      A
 Frequencies --    417.8031               449.8538               465.7999
 Red. masses --      2.9749                 3.2728                 3.6649
 Frc consts  --      0.3060                 0.3902                 0.4685
 IR Inten    --      0.0690                37.8919                62.6292

                     25                     26                     27
                      A                      A                      A
 Frequencies --    490.3992               512.8151               538.8831
 Red. masses --      4.7881                 3.4938                 4.9824
 Frc consts  --      0.6784                 0.5413                 0.8525
 IR Inten    --      5.0593                12.8726                45.6412

                     28                     29                     30
                      A                      A                      A
 Frequencies --    571.9328               609.1413               634.4424
 Red. masses --      7.2002                 3.7559                 6.3182
 Frc consts  --      1.3877                 0.8211                 1.4984
 IR Inten    --    121.2346                 7.7774                 0.5455

                     31                     32                     33
                      A                      A                      A
 Frequencies --    640.9255               706.5922               718.3691
 Red. masses --      3.4414                 3.1765                 1.8232
 Frc consts  --      0.8329                 0.9344                 0.5544
 IR Inten    --     92.0732                40.6582                19.6011

                     34                     35                     36
                      A                      A                      A
 Frequencies --    750.4042               763.1865               771.9884
 Red. masses --      4.5312                 4.2894                 1.7760
 Frc consts  --      1.5033                 1.4720                 0.6236
 IR Inten    --     71.6710                95.2515                72.2010

                     37                     38                     39
                      A                      A                      A
 Frequencies --    779.4665               816.9455               818.2459
 Red. masses --      1.4312                 1.7176                 3.9750
 Frc consts  --      0.5123                 0.6754                 1.5680
 IR Inten    --      7.7209                19.3431                 5.5364

                     40                     41                     42
                      A                      A                      A
 Frequencies --    833.3735               844.4452               867.7339
 Red. masses --      2.3710                 2.9378                 1.2493
 Frc consts  --      0.9702                 1.2343                 0.5542
 IR Inten    --     43.4488                22.2839                 0.0120

                     43                     44                     45
                      A                      A                      A
 Frequencies --    909.2200               933.2275               949.2512
 Red. masses --      2.5555                 1.4766                 2.2763
 Frc consts  --      1.2447                 0.7577                 1.2085
 IR Inten    --     61.7102                 9.1929                21.3192

                     46                     47                     48
                      A                      A                      A
 Frequencies --    979.5009               997.3155              1001.7877
 Red. masses --      1.3525                 1.3400                 1.4689
 Frc consts  --      0.7645                 0.7853                 0.8686
 IR Inten    --      0.0236                 2.4735               102.7220

                     49                     50                     51
                      A                      A                      A
 Frequencies --   1006.1616              1013.0228              1016.5615
 Red. masses --      1.2667                 1.6896                 6.0364
 Frc consts  --      0.7556                 1.0216                 3.6753
 IR Inten    --      0.4590                13.9514                 0.2548

                     52                     53                     54
                      A                      A                      A
 Frequencies --   1049.5598              1053.5012              1056.5235
 Red. masses --      1.3920                 2.2062                 2.4259
 Frc consts  --      0.9034                 1.4427                 1.5954
 IR Inten    --      6.9030                16.6455                22.5212

                     55                     56                     57
                      A                      A                      A
 Frequencies --   1068.0221              1077.4159              1109.1624
 Red. masses --      1.8019                 3.7890                 9.2478
 Frc consts  --      1.2110                 2.5915                 6.7031
 IR Inten    --     37.3423                98.5901               459.9683

                     58                     59                     60
                      A                      A                      A
 Frequencies --   1122.5442              1170.4233              1184.1263
 Red. masses --      1.5940                 3.7612                 1.0940
 Frc consts  --      1.1835                 3.0357                 0.9038
 IR Inten    --      6.1517                11.0421                 0.4120

                     61                     62                     63
                      A                      A                      A
 Frequencies --   1189.8432              1200.3929              1226.8782
 Red. masses --      1.2977                 1.1328                 1.8411
 Frc consts  --      1.0825                 0.9617                 1.6328
 IR Inten    --     14.8769                 0.5389                81.4557

                     64                     65                     66
                      A                      A                      A
 Frequencies --   1233.9273              1237.9034              1253.9147
 Red. masses --      1.8486                 2.1398                 3.0924
 Frc consts  --      1.6583                 1.9320                 2.8647
 IR Inten    --     15.6667                48.8437               242.8212

                     67                     68                     69
                      A                      A                      A
 Frequencies --   1268.5996              1274.0934              1327.1875
 Red. masses --      2.7745                 6.9273                 1.4769
 Frc consts  --      2.6307                 6.6255                 1.5328
 IR Inten    --    231.6895               310.0404                26.0089

                     70                     71                     72
                      A                      A                      A
 Frequencies --   1334.4136              1360.9337              1367.2206
 Red. masses --      1.3362                 2.5747                 1.4542
 Frc consts  --      1.4019                 2.8097                 1.6016
 IR Inten    --      2.2111                 0.0085                 1.1651

                     73                     74                     75
                      A                      A                      A
 Frequencies --   1379.4081              1405.6448              1461.5998
 Red. masses --      1.2043                 1.4918                 1.0901
 Frc consts  --      1.3502                 1.7367                 1.3720
 IR Inten    --     14.8686                 8.8809                70.1581

                     76                     77                     78
                      A                      A                      A
 Frequencies --   1462.1404              1470.1938              1475.5098
 Red. masses --      1.0834                 1.0535                 1.0887
 Frc consts  --      1.3646                 1.3417                 1.3966
 IR Inten    --      5.3243                24.0697                16.8079

                     79                     80                     81
                      A                      A                      A
 Frequencies --   1489.2655              1498.6023              1498.9697
 Red. masses --      1.1458                 1.1482                 2.0205
 Frc consts  --      1.4973                 1.5192                 2.6749
 IR Inten    --     39.1982                 7.2898                 3.4679

                     82                     83                     84
                      A                      A                      A
 Frequencies --   1524.3438              1542.8168              1642.5671
 Red. masses --      1.0970                 2.2581                 5.5449
 Frc consts  --      1.5018                 3.1668                 8.8143
 IR Inten    --      8.2785                18.2990                 1.8191

                     85                     86                     87
                      A                      A                      A
 Frequencies --   1662.7171              3062.3080              3074.9792
 Red. masses --      5.7676                 1.0615                 1.0595
 Frc consts  --      9.3947                 5.8652                 5.9025
 IR Inten    --      9.0047                13.9109                61.3309

                     88                     89                     90
                      A                      A                      A
 Frequencies --   3103.0007              3106.7552              3124.7078
 Red. masses --      1.0300                 1.1012                 1.1051
 Frc consts  --      5.8432                 6.2622                 6.3570
 IR Inten    --      0.2599                 1.1032                58.9792

                     91                     92                     93
                      A                      A                      A
 Frequencies --   3143.2409              3157.6092              3190.5316
 Red. masses --      1.0576                 1.0577                 1.0869
 Frc consts  --      6.1564                 6.2134                 6.5189
 IR Inten    --      6.1258                10.3796                16.0214

                     94                     95                     96
                      A                      A                      A
 Frequencies --   3192.2131              3200.7392              3204.4758
 Red. masses --      1.0875                 1.1074                 1.0897
 Frc consts  --      6.5293                 6.6841                 6.5931
 IR Inten    --     12.9512                 0.3241                 9.8037

                     97                     98                     99
                      A                      A                      A
 Frequencies --   3210.9305              3215.8423              3222.5073
 Red. masses --      1.0939                 1.1114                 1.1084
 Frc consts  --      6.6448                 6.7720                 6.7815
 IR Inten    --     72.0633                 6.1794                 0.1712

                    100                    101                    102
                      A                      A                      A
 Frequencies --   3224.4365              3233.0553              3484.6540
 Red. masses --      1.0976                 1.1110                 1.0754
 Frc consts  --      6.7234                 6.8422                 7.6936
 IR Inten    --     34.1431                 8.2429                87.3089

 - Thermochemistry -
 -------------------
 Temperature   298.150 Kelvin.  Pressure   1.00000 Atm.
 Atom     1 has atomic number  6 and mass  12.00000

 Molecular mass:   303.05990 amu.
 Principal axes and moments of inertia in atomic units:
                           1         2         3
     Eigenvalues --  3453.03045********************
           X            0.99992   0.01212  -0.00325
           Y           -0.01221   0.99949  -0.02953
           Z            0.00289   0.02957   0.99956
 This molecule is an asymmetric top.
 Rotational symmetry number  1.
 Warning -- assumption of classical behavior for rotation
           may cause significant error
 Rotational temperatures (Kelvin)      0.02508     0.00780     0.00656
 Rotational constants (GHZ):           0.52265     0.16245     0.13675
 Zero-point vibrational energy     753321.5 (Joules/Mol)
                                  180.04815 (Kcal/Mol)
 Warning -- explicit consideration of  29 degrees of freedom as
           vibrations may cause significant error
 Vibrational temperatures:     25.64    34.03    48.79    62.13    91.67
          (Kelvin)            137.00   172.56   189.06   271.57   274.34
                              285.64   322.15   334.22   397.96   431.76
                              446.14   484.35   502.64   537.17   559.17
                              585.02   601.13   647.24   670.18   705.57
                              737.83   775.33   822.88   876.42   912.82
                              922.15  1016.63  1033.57  1079.66  1098.06
                             1110.72  1121.48  1175.40  1177.27  1199.04
                             1214.97  1248.48  1308.16  1342.71  1365.76
                             1409.28  1434.91  1441.35  1447.64  1457.51
                             1462.61  1510.08  1515.75  1520.10  1536.65
                             1550.16  1595.84  1615.09  1683.98  1703.69
                             1711.92  1727.10  1765.20  1775.35  1781.07
                             1804.10  1825.23  1833.14  1909.53  1919.92
                             1958.08  1967.13  1984.66  2022.41  2102.92
                             2103.69  2115.28  2122.93  2142.72  2156.15
                             2156.68  2193.19  2219.77  2363.29  2392.28
                             4405.98  4424.21  4464.53  4469.93  4495.76
                             4522.42  4543.10  4590.46  4592.88  4605.15
                             4610.53  4619.81  4626.88  4636.47  4639.24
                             4651.65  5013.64

 Zero-point correction=                           0.286925 (Hartree/Particle)
 Thermal correction to Energy=                    0.305714
 Thermal correction to Enthalpy=                  0.306658
 Thermal correction to Gibbs Free Energy=         0.237279
 Sum of electronic and zero-point Energies=          -1619.128932
 Sum of electronic and thermal Energies=             -1619.110143
 Sum of electronic and thermal Enthalpies=           -1619.109199
 Sum of electronic and thermal Free Energies=        -1619.178578

                     E (Thermal)             CV                S
                      KCal/Mol        Cal/Mol-Kelvin    Cal/Mol-Kelvin
 Total                  191.838             71.873            146.021
 Electronic               0.000              0.000              0.000
 Translational            0.889              2.981             43.023
 Rotational               0.889              2.981             34.581
 Vibrational            190.061             65.912             68.417
 Vibration     1          0.593              1.986              6.864
 Vibration     2          0.593              1.985              6.301
 Vibration     3          0.594              1.983              5.586
 Vibration     4          0.595              1.980              5.108
 Vibration     5          0.597              1.972              4.339
 Vibration     6          0.603              1.953              3.550
 Vibration     7          0.609              1.933              3.101
 Vibration     8          0.612              1.922              2.925
 Vibration     9          0.633              1.855              2.240
 Vibration    10          0.634              1.853              2.221
 Vibration    11          0.637              1.842              2.147
 Vibration    12          0.649              1.805              1.927
 Vibration    13          0.653              1.792              1.861
 Vibration    14          0.678              1.717              1.555
 Vibration    15          0.693              1.674              1.416
 Vibration    16          0.699              1.655              1.362
 Vibration    17          0.717              1.602              1.228
 Vibration    18          0.727              1.577              1.169
 Vibration    19          0.745              1.527              1.066
 Vibration    20          0.757              1.494              1.005
 Vibration    21          0.771              1.456              0.939
 Vibration    22          0.781              1.432              0.899
 Vibration    23          0.809              1.361              0.796
 Vibration    24          0.823              1.326              0.749
 Vibration    25          0.846              1.271              0.683
 Vibration    26          0.868              1.222              0.627
 Vibration    27          0.894              1.164              0.568
 Vibration    28          0.928              1.092              0.501
 Vibration    29          0.968              1.012              0.434

 Optimization completed.
    -- Stationary point found.
 Normal termination of Gaussian 16 at Mon Sep 21 08:27:30 2020.

 ----------------------------------------------------------------------
 #p b3lyp/6-31G(d) scrf=(iefpcm,read,solvent=water) geom=allcheck guess
 =read
 ----------------------------------------------------------------------

 Structure from the checkpoint file:  "SM38_m0.n.11.pdb.xyz.mst.n.w.chk"
 --------------------
 SM38_m0.n.11.pdb.xyz
 --------------------
 Charge =  0 Multiplicity = 1

 SCF Done:  E(RB3LYP) =  -1619.41585313     A.U. after    6 cycles
 Normal termination of Gaussian 16 at Mon Sep 21 08:28:12 2020.

 -----------------------------
 #p B3LYP/6-31G* geom=allcheck
 -----------------------------

 Structure from the checkpoint file:  "SM38_m0.n.11.pdb.xyz.mst.n.w.chk"
 --------------------
 SM38_m0.n.11.pdb.xyz
 --------------------
 Charge =  0 Multiplicity = 1

 SCF Done:  E(RB3LYP) =  -1619.38038151     A.U. after   15 cycles
 Normal termination of Gaussian 16 at Mon Sep 21 08:29:11 2020.
 Gaussian 16:  ES64L-G16RevB.01 20-Dec-2017

 ----------------------------------------------------------------------
 #p mp2/aug-cc-pVDZ scf=(MaxCycle=2000,NoVarAcc,NoIncFock) maxdisk=120G
 B geom=allcheck
 ----------------------------------------------------------------------

 Structure from the checkpoint file:  "SM38_m0.n.11.pdb.xyz.mst.n.w.chk"
 --------------------
 SM38_m0.n.11.pdb.xyz
 --------------------
 Charge =  0 Multiplicity = 1

                         Standard orientation:
 ---------------------------------------------------------------------
 Center     Atomic      Atomic             Coordinates (Angstroms)
 Number     Number       Type             X           Y           Z
 ---------------------------------------------------------------------
      1          6           0       -3.387779   -3.118580   -0.348967
      2         16           0       -3.072791   -1.402400    0.052787
      3          7           0       -1.386969   -1.363557   -0.103773
      4          6           0       -0.627530   -0.094365   -0.027751
      5          6           0       -1.015645    0.862465    1.161750
      6         16           0       -1.340547    2.217860   -0.016323
      7          6           0       -0.974551    0.879033   -1.204412
      8          8           0       -2.750341    2.655101   -0.034151
      9          8           0       -0.289326    3.256346    0.007128
     10          6           0        0.854502   -0.524988   -0.014212
     11          6           0        1.892757    0.611260    0.000954
     12          6           0        3.304191    0.064505    0.001727
     13          6           0        3.955433   -0.241467   -1.200897
     14          6           0        5.246673   -0.771277   -1.200751
     15          6           0        5.909126   -1.003234    0.006693
     16          6           0        5.271418   -0.700406    1.211513
     17          6           0        3.979909   -0.170741    1.206061
     18          8           0       -3.633481   -0.529104   -0.993242
     19          8           0       -3.513023   -1.156739    1.441565
     20          1           0       -3.029763   -3.313730   -1.358169
     21          1           0       -4.468853   -3.250383   -0.287253
     22          1           0       -2.888868   -3.757348    0.381101
     23          1           0       -1.005308   -2.045220    0.557041
     24          1           0       -0.217987    1.100194    1.864477
     25          1           0       -1.924095    0.569235    1.685479
     26          1           0       -0.145868    1.126684   -1.864826
     27          1           0       -1.864999    0.600520   -1.762766
     28          1           0        1.018906   -1.153973   -0.894707
     29          1           0        1.016608   -1.158292    0.865593
     30          1           0        1.747931    1.237977    0.885968
     31          1           0        1.753522    1.255050   -0.872583
     32          1           0        3.448207   -0.058216   -2.143951
     33          1           0        5.736250   -0.998001   -2.142537
     34          1           0        6.914181   -1.411826    0.008268
     35          1           0        5.779814   -0.871591    2.155038
     36          1           0        3.490880    0.068400    2.146166
 ---------------------------------------------------------------------

 SCF Done:  E(RHF) =  -1613.18301887     A.U. after   16 cycles
 E2 =    -0.2988145113D+01 EUMP2 =    -0.16161711639822D+04

 The electronic state is 1-A.
 Alpha  occ. eigenvalues --  -92.24270 -92.19305 -20.57421 -20.57296 -20.55359
 Alpha  occ. eigenvalues --  -20.54952 -15.64237 -11.34649 -11.30959 -11.28889
 Alpha  occ. eigenvalues --  -11.28725 -11.27362 -11.26277 -11.25902 -11.25501
 Alpha  occ. eigenvalues --  -11.25485 -11.25209 -11.25204 -11.25113  -9.21153
 Alpha  occ. eigenvalues --   -9.16562  -6.89654  -6.89632  -6.89540  -6.85051
 Alpha  occ. eigenvalues --   -6.84959  -6.84895  -1.47150  -1.43322  -1.34816
 Alpha  occ. eigenvalues --   -1.32032  -1.27788  -1.17209  -1.15119  -1.08642
 Alpha  occ. eigenvalues --   -1.06409  -1.02814  -1.01754  -0.98197  -0.93698
 Alpha  occ. eigenvalues --   -0.86439  -0.84475  -0.84181  -0.80971  -0.78102
 Alpha  occ. eigenvalues --   -0.74480  -0.71652  -0.70369  -0.69765  -0.67961
 Alpha  occ. eigenvalues --   -0.67812  -0.66909  -0.65759  -0.64624  -0.63534
 Alpha  occ. eigenvalues --   -0.62765  -0.62363  -0.61594  -0.60973  -0.59902
 Alpha  occ. eigenvalues --   -0.59692  -0.57923  -0.57280  -0.55857  -0.53821
 Alpha  occ. eigenvalues --   -0.53125  -0.51450  -0.50949  -0.50180  -0.49787
 Alpha  occ. eigenvalues --   -0.49629  -0.48785  -0.47868  -0.46899  -0.46700
 Alpha  occ. eigenvalues --   -0.45416  -0.44589  -0.41760  -0.34859  -0.34031
 Alpha virt. eigenvalues --    0.01657   0.02834   0.03003   0.03768   0.04051
 Alpha virt. eigenvalues --    0.04435   0.05201   0.05495   0.05940   0.06668
 Alpha virt. eigenvalues --    0.06827   0.07432   0.07466   0.08419   0.09252

 Mulliken charges:
               1
     1  C    0.160429
     2  S    2.776276
     3  N   -1.267245
     4  C    0.673883
     5  C    0.437165
     6  S    2.988960
     7  C    0.214288
     8  O   -1.242464
     9  O   -1.273943
    10  C    0.022078
    11  C    0.767831
    12  C    1.211785
    13  C    0.484220
    14  C    0.008484
    15  C    0.648049
    16  C    0.030727
    17  C    0.484509
    18  O   -1.199191
    19  O   -1.211509
    20  H    0.031491
    21  H    0.034512
    22  H    0.007418
    23  H    0.044821
    24  H   -0.315414
    25  H   -0.320996
    26  H   -0.313402
    27  H   -0.244121
    28  H   -0.130693
    29  H   -0.230814
    30  H   -0.296817
    31  H   -0.274061
    32  H   -0.679361
    33  H   -0.465016
    34  H   -0.434059
    35  H   -0.461577
    36  H   -0.666241
 Sum of Mulliken charges =  -0.00000

 Dipole moment (field-independent basis, Debye):
    X=              4.6737    Y=             -9.3190    Z=             -0.4575  Tot=             10.4354
 Quadrupole moment (field-independent basis, Debye-Ang):
   XX=           -143.4463   YY=           -137.7109   ZZ=           -122.6572
   XY=             17.3019   XZ=              3.6088   YZ=              1.7993

 Normal termination of Gaussian 16 at Mon Sep 21 12:10:04 2020.
