 Gaussian 16, Revision B.01,

 ----------------------------------------------------------------------
 #p b3lyp/6-31G(d) opt freq NoSymm scf=(MaxCycle=2000,NoVarAcc,NoIncFoc
 k) scrf=(iefpcm,read,solvent=water)
 ----------------------------------------------------------------------

 --------------------
 SM38_m1.a.10.pdb.xyz
 --------------------
 Symbolic Z-matrix:
 Charge = -1 Multiplicity = 1

 SCF Done:  E(RB3LYP) =  -1619.00739470     A.U. after   13 cycles
 SCF Done:  E(RB3LYP) =  -1619.00739697     A.U. after    8 cycles
 SCF Done:  E(RB3LYP) =  -1619.00739820     A.U. after    7 cycles
 SCF Done:  E(RB3LYP) =  -1619.00739885     A.U. after    7 cycles
 SCF Done:  E(RB3LYP) =  -1619.00739796     A.U. after    6 cycles
 Optimization completed.
    -- Stationary point found.
 Normal termination of Gaussian 16 at Tue Sep 22 01:52:54 2020.

 --------------------------------------------------------------------
 #P Geom=AllCheck Guess=TCheck SCRF=Check GenChk RB3LYP/6-31G(d) Freq
 --------------------------------------------------------------------

 Structure from the checkpoint file:  "SM38_m1.a.10.pdb.xyz.mst.a.w.chk"
 --------------------
 SM38_m1.a.10.pdb.xyz
 --------------------
 Charge = -1 Multiplicity = 1

 SCF Done:  E(RB3LYP) =  -1619.00739796     A.U. after    1 cycles

  Exact polarizability: 240.985 -29.147 234.763  21.600  21.504 220.498
 Approx polarizability: 269.686 -33.118 258.203  19.562  27.345 260.337

                      1                      2                      3
                      A                      A                      A
 Frequencies --     21.7471                30.3648                34.1060
 Red. masses --      6.1623                 6.2693                 3.8778
 Frc consts  --      0.0017                 0.0034                 0.0027
 IR Inten    --      1.1116                 6.4422                 0.4499

                      4                      5                      6
                      A                      A                      A
 Frequencies --     47.9229                54.5248               101.8993
 Red. masses --      6.2783                 7.5170                 6.2998
 Frc consts  --      0.0085                 0.0132                 0.0385
 IR Inten    --      0.4351                 4.3083                 1.2555

                      7                      8                      9
                      A                      A                      A
 Frequencies --    114.9923               137.7649               176.2562
 Red. masses --      4.7322                 6.5814                 6.5374
 Frc consts  --      0.0369                 0.0736                 0.1197
 IR Inten    --      3.4099                 2.0424                41.4450

                     10                     11                     12
                      A                      A                      A
 Frequencies --    190.7969               221.1703               236.0791
 Red. masses --      5.4154                 1.0483                 4.1928
 Frc consts  --      0.1162                 0.0302                 0.1377
 IR Inten    --      2.1319                 0.0219                 4.1676

                     13                     14                     15
                      A                      A                      A
 Frequencies --    272.1252               278.5752               312.1704
 Red. masses --      5.2333                 3.3192                 3.5536
 Frc consts  --      0.2283                 0.1518                 0.2040
 IR Inten    --      7.6015                 4.8526                 1.7404

                     16                     17                     18
                      A                      A                      A
 Frequencies --    330.3189               337.3759               357.3414
 Red. masses --      3.9049                 3.5410                 2.2417
 Frc consts  --      0.2510                 0.2375                 0.1687
 IR Inten    --     16.8835                20.3482                 4.4049

                     19                     20                     21
                      A                      A                      A
 Frequencies --    391.6289               416.3828               423.5738
 Red. masses --      2.7907                 2.9893                 4.5050
 Frc consts  --      0.2522                 0.3054                 0.4762
 IR Inten    --     15.2276                 1.5729                48.3934

                     22                     23                     24
                      A                      A                      A
 Frequencies --    425.8770               464.0567               482.0262
 Red. masses --      2.8951                 4.1957                 8.0859
 Frc consts  --      0.3094                 0.5323                 1.1069
 IR Inten    --     32.0642                25.2440                 9.5065

                     25                     26                     27
                      A                      A                      A
 Frequencies --    503.5179               530.2120               547.9655
 Red. masses --      4.4479                 5.5017                 4.5843
 Frc consts  --      0.6644                 0.9113                 0.8110
 IR Inten    --     20.7534                12.2365                29.2713

                     28                     29                     30
                      A                      A                      A
 Frequencies --    579.6335               596.6237               634.8274
 Red. masses --      4.7990                 3.6227                 6.3409
 Frc consts  --      0.9500                 0.7598                 1.5056
 IR Inten    --     60.1574                67.3388                 0.2210

                     31                     32                     33
                      A                      A                      A
 Frequencies --    671.1040               714.4069               736.2349
 Red. masses --      4.2865                 1.9180                 5.3149
 Frc consts  --      1.1375                 0.5768                 1.6974
 IR Inten    --     24.2719                42.7095                33.7478

                     34                     35                     36
                      A                      A                      A
 Frequencies --    753.9356               761.0033               777.6215
 Red. masses --      4.2100                 2.3723                 2.9389
 Frc consts  --      1.4099                 0.8094                 1.0471
 IR Inten    --     77.2219                38.4156                27.5793

                     37                     38                     39
                      A                      A                      A
 Frequencies --    794.6442               834.2474               846.2736
 Red. masses --      3.0497                 1.5827                 2.9657
 Frc consts  --      1.1346                 0.6490                 1.2514
 IR Inten    --      3.6247                 3.8791                70.8415

                     40                     41                     42
                      A                      A                      A
 Frequencies --    863.0668               871.8147               912.2265
 Red. masses --      1.2770                 2.6046                 2.1441
 Frc consts  --      0.5605                 1.1664                 1.0512
 IR Inten    --      2.3771                26.4871                 9.7218

                     43                     44                     45
                      A                      A                      A
 Frequencies --    931.7014               974.7298               978.5768
 Red. masses --      1.7352                 1.3564                 2.3066
 Frc consts  --      0.8875                 0.7593                 1.3014
 IR Inten    --      9.0329                 0.2514                17.5700

                     46                     47                     48
                      A                      A                      A
 Frequencies --    983.0728               984.9385              1001.6519
 Red. masses --      1.3983                 1.7660                 1.2504
 Frc consts  --      0.7962                 1.0094                 0.7392
 IR Inten    --      2.7148                66.1805                 0.8327

                     49                     50                     51
                      A                      A                      A
 Frequencies --   1015.0008              1018.3768              1018.6427
 Red. masses --      4.6805                 1.7816                 3.1363
 Frc consts  --      2.8410                 1.0886                 1.9174
 IR Inten    --      6.0243                44.0654                33.1941

                     52                     53                     54
                      A                      A                      A
 Frequencies --   1039.2258              1052.7573              1057.4384
 Red. masses --      1.1558                 3.5276                 2.1447
 Frc consts  --      0.7354                 2.3035                 1.4129
 IR Inten    --     17.9881               340.5564                 3.5956

                     55                     56                     57
                      A                      A                      A
 Frequencies --   1070.3690              1077.6887              1110.3388
 Red. masses --      2.7394                 4.2638                 1.8436
 Frc consts  --      1.8491                 2.9176                 1.3391
 IR Inten    --    165.3671               496.4134               117.7492

                     58                     59                     60
                      A                      A                      A
 Frequencies --   1131.3557              1146.9547              1184.6133
 Red. masses --      6.9605                 3.1972                 1.3489
 Frc consts  --      5.2492                 2.4781                 1.1153
 IR Inten    --    401.2160               106.5179                21.6800

                     61                     62                     63
                      A                      A                      A
 Frequencies --   1186.9920              1205.4443              1210.0817
 Red. masses --      1.0981                 1.4466                 1.1721
 Frc consts  --      0.9116                 1.2385                 1.0112
 IR Inten    --      0.1800                72.5326                13.4722

                     64                     65                     66
                      A                      A                      A
 Frequencies --   1228.2200              1239.8974              1246.3655
 Red. masses --      2.4951                 1.6327                 7.7430
 Frc consts  --      2.2177                 1.4789                 7.0868
 IR Inten    --      3.7831                83.8929               400.7747

                     67                     68                     69
                      A                      A                      A
 Frequencies --   1277.2830              1299.5191              1352.0200
 Red. masses --      2.1462                 1.3040                 4.0536
 Frc consts  --      2.0630                 1.2974                 4.3657
 IR Inten    --    106.1655                50.8077                 1.4157

                     70                     71                     72
                      A                      A                      A
 Frequencies --   1366.5830              1376.5927              1387.8663
 Red. masses --      1.3978                 1.2192                 1.3187
 Frc consts  --      1.5380                 1.3613                 1.4965
 IR Inten    --      2.2424                12.8647                13.6051

                     73                     74                     75
                      A                      A                      A
 Frequencies --   1403.9859              1462.6475              1475.5297
 Red. masses --      1.3962                 1.0885                 1.0514
 Frc consts  --      1.6215                 1.3720                 1.3487
 IR Inten    --     10.6958                20.6976                 8.2149

                     76                     77                     78
                      A                      A                      A
 Frequencies --   1478.3855              1482.7122              1495.7433
 Red. masses --      1.0899                 1.0481                 1.8720
 Frc consts  --      1.4036                 1.3575                 2.4675
 IR Inten    --     14.6216                 6.0688                 8.0608

                     79                     80                     81
                      A                      A                      A
 Frequencies --   1500.3711              1513.1604              1542.8278
 Red. masses --      1.1110                 1.1784                 2.1840
 Frc consts  --      1.4736                 1.5897                 3.0629
 IR Inten    --      5.0375                 7.5555                18.0190

                     82                     83                     84
                      A                      A                      A
 Frequencies --   1636.9399              1658.4478              3038.8455
 Red. masses --      5.3903                 5.5521                 1.0631
 Frc consts  --      8.5100                 8.9973                 5.7842
 IR Inten    --      1.2513                 9.4926                21.5023

                     85                     86                     87
                      A                      A                      A
 Frequencies --   3049.2859              3081.9143              3087.6112
 Red. masses --      1.0650                 1.1035                 1.0305
 Frc consts  --      5.8344                 6.1753                 5.7883
 IR Inten    --     86.3362                47.1254                 4.3331

                     88                     89                     90
                      A                      A                      A
 Frequencies --   3112.3546              3114.4265              3129.6645
 Red. masses --      1.0947                 1.0577                 1.0574
 Frc consts  --      6.2477                 6.0446                 6.1021
 IR Inten    --     41.9633                13.7569                12.0719

                     91                     92                     93
                      A                      A                      A
 Frequencies --   3175.8799              3181.4566              3182.8699
 Red. masses --      1.0869                 1.0863                 1.1063
 Frc consts  --      6.4591                 6.4783                 6.6034
 IR Inten    --     17.7474                 7.4618                 7.9479

                     94                     95                     96
                      A                      A                      A
 Frequencies --   3190.7468              3190.8524              3190.9552
 Red. masses --      1.1092                 1.0910                 1.1083
 Frc consts  --      6.6532                 6.5447                 6.6486
 IR Inten    --      9.2571                17.6010                 4.2517

                     97                     98                     99
                      A                      A                      A
 Frequencies --   3197.7149              3207.4890              3209.9020
 Red. masses --      1.0939                 1.1114                 1.0977
 Frc consts  --      6.5906                 6.7367                 6.6636
 IR Inten    --     82.8687                 3.3085                34.1993

 - Thermochemistry -
 -------------------
 Temperature   298.150 Kelvin.  Pressure   1.00000 Atm.
 Atom     1 has atomic number  6 and mass  12.00000

 Molecular mass:   302.05208 amu.
 Principal axes and moments of inertia in atomic units:
                           1         2         3
     Eigenvalues --  4449.545467239.487089500.72472
           X            0.99472  -0.10238   0.00687
           Y            0.10131   0.99059   0.09204
           Z           -0.01623  -0.09086   0.99573
 This molecule is an asymmetric top.
 Rotational symmetry number  1.
 Warning -- assumption of classical behavior for rotation
           may cause significant error
 Rotational temperatures (Kelvin)      0.01947     0.01196     0.00912
 Rotational constants (GHZ):           0.40560     0.24929     0.18996
 Zero-point vibrational energy     717373.3 (Joules/Mol)
                                  171.45634 (Kcal/Mol)
 Warning -- explicit consideration of  29 degrees of freedom as
           vibrations may cause significant error
 Vibrational temperatures:     31.29    43.69    49.07    68.95    78.45
          (Kelvin)            146.61   165.45   198.21   253.59   274.51
                              318.21   339.67   391.53   400.81   449.14
                              475.26   485.41   514.13   563.47   599.08
                              609.43   612.74   667.67   693.53   724.45
                              762.86   788.40   833.96   858.41   913.37
                              965.57  1027.87  1059.28  1084.75  1094.91
                             1118.82  1143.32  1200.30  1217.60  1241.76
                             1254.35  1312.49  1340.51  1402.42  1407.95
                             1414.42  1417.11  1441.15  1460.36  1465.22
                             1465.60  1495.21  1514.68  1521.42  1540.02
                             1550.55  1597.53  1627.77  1650.21  1704.39
                             1707.82  1734.37  1741.04  1767.13  1783.94
                             1793.24  1837.73  1869.72  1945.26  1966.21
                             1980.61  1996.83  2020.02  2104.42  2122.96
                             2127.07  2133.29  2152.04  2158.70  2177.10
                             2219.79  2355.19  2386.14  4372.22  4387.24
                             4434.19  4442.38  4477.98  4480.97  4502.89
                             4569.38  4577.41  4579.44  4590.77  4590.92
                             4591.07  4600.80  4614.86  4618.33

 Zero-point correction=                           0.273233 (Hartree/Particle)
 Thermal correction to Energy=                    0.291636
 Thermal correction to Enthalpy=                  0.292580
 Thermal correction to Gibbs Free Energy=         0.224540
 Sum of electronic and zero-point Energies=          -1618.734165
 Sum of electronic and thermal Energies=             -1618.715762
 Sum of electronic and thermal Enthalpies=           -1618.714818
 Sum of electronic and thermal Free Energies=        -1618.782858

                     E (Thermal)             CV                S
                      KCal/Mol        Cal/Mol-Kelvin    Cal/Mol-Kelvin
 Total                  183.004             70.676            143.203
 Electronic               0.000              0.000              0.000
 Translational            0.889              2.981             43.013
 Rotational               0.889              2.981             34.081
 Vibrational            181.227             64.714             66.109
 Vibration     1          0.593              1.985              6.468
 Vibration     2          0.594              1.984              5.805
 Vibration     3          0.594              1.983              5.575
 Vibration     4          0.595              1.978              4.901
 Vibration     5          0.596              1.976              4.646
 Vibration     6          0.604              1.948              3.418
 Vibration     7          0.608              1.937              3.183
 Vibration     8          0.614              1.916              2.835
 Vibration     9          0.628              1.872              2.368
 Vibration    10          0.634              1.853              2.220
 Vibration    11          0.648              1.809              1.949
 Vibration    12          0.655              1.786              1.832
 Vibration    13          0.675              1.725              1.583
 Vibration    14          0.679              1.713              1.542
 Vibration    15          0.701              1.650              1.351
 Vibration    16          0.713              1.615              1.259
 Vibration    17          0.718              1.601              1.225
 Vibration    18          0.733              1.560              1.134
 Vibration    19          0.759              1.488              0.994
 Vibration    20          0.780              1.435              0.904
 Vibration    21          0.786              1.419              0.880
 Vibration    22          0.788              1.414              0.872
 Vibration    23          0.822              1.330              0.754
 Vibration    24          0.838              1.290              0.705
 Vibration    25          0.859              1.242              0.649
 Vibration    26          0.885              1.183              0.587
 Vibration    27          0.903              1.144              0.548
 Vibration    28          0.936              1.075              0.486
 Vibration    29          0.954              1.039              0.455

 Optimization completed.
    -- Stationary point found.
 Normal termination of Gaussian 16 at Tue Sep 22 02:06:43 2020.

 ----------------------------------------------------------------------
 #p b3lyp/6-31G(d) scrf=(iefpcm,read,solvent=water) geom=allcheck guess
 =read
 ----------------------------------------------------------------------

 Structure from the checkpoint file:  "SM38_m1.a.10.pdb.xyz.mst.a.w.chk"
 --------------------
 SM38_m1.a.10.pdb.xyz
 --------------------
 Charge = -1 Multiplicity = 1

 SCF Done:  E(RB3LYP) =  -1619.00724699     A.U. after    7 cycles
 Normal termination of Gaussian 16 at Tue Sep 22 02:07:31 2020.

 -----------------------------
 #p B3LYP/6-31G* geom=allcheck
 -----------------------------

 Structure from the checkpoint file:  "SM38_m1.a.10.pdb.xyz.mst.a.w.chk"
 --------------------
 SM38_m1.a.10.pdb.xyz
 --------------------
 Charge = -1 Multiplicity = 1

 SCF Done:  E(RB3LYP) =  -1618.84240546     A.U. after   15 cycles

 The electronic state is 1-A.
 Alpha  occ. eigenvalues --  -88.94650 -88.93054 -19.00329 -19.00167 -18.95336
 Alpha  occ. eigenvalues --  -18.95320 -14.13881 -10.11942 -10.10254 -10.10119
 Alpha  occ. eigenvalues --  -10.10046 -10.09975 -10.09659 -10.09179 -10.08225
 Alpha  occ. eigenvalues --  -10.07841 -10.07673 -10.07448 -10.07413  -7.97729
 Alpha  occ. eigenvalues --   -7.95440  -5.94176  -5.94085  -5.93978  -5.91906
 Alpha  occ. eigenvalues --   -5.91855  -5.91813  -0.95181  -0.91093  -0.84845
 Alpha  occ. eigenvalues --   -0.79316  -0.76274  -0.75239  -0.68578  -0.68074
 Alpha  occ. eigenvalues --   -0.65093  -0.62763  -0.60955  -0.57373  -0.54991
 Alpha  occ. eigenvalues --   -0.51220  -0.49752  -0.47223  -0.44213  -0.41937
 Alpha  occ. eigenvalues --   -0.39956  -0.37166  -0.36686  -0.35509  -0.35122
 Alpha  occ. eigenvalues --   -0.34510  -0.32900  -0.32577  -0.31858  -0.31485
 Alpha  occ. eigenvalues --   -0.31184  -0.30691  -0.30001  -0.28757  -0.28508
 Alpha  occ. eigenvalues --   -0.27836  -0.27048  -0.26186  -0.25180  -0.24635
 Alpha  occ. eigenvalues --   -0.23554  -0.22153  -0.21480  -0.19083  -0.17296
 Alpha  occ. eigenvalues --   -0.16630  -0.15906  -0.15633  -0.15462  -0.14549
 Alpha  occ. eigenvalues --   -0.13239  -0.12946  -0.11564  -0.09972  -0.05472
 Alpha virt. eigenvalues --    0.08878   0.09229   0.17674   0.18640   0.19518
 Alpha virt. eigenvalues --    0.20392   0.20479   0.21195   0.21316   0.23235
 Alpha virt. eigenvalues --    0.23383   0.24268   0.24641   0.25418   0.25545

 Mulliken charges:
               1
     1  C   -0.597326
     2  S    1.074920
     3  N   -0.661691
     4  C    0.202065
     5  C   -0.511898
     6  S    1.073923
     7  C   -0.508611
     8  O   -0.542543
     9  O   -0.577736
    10  C   -0.265781
    11  C   -0.335161
    12  C    0.157709
    13  C   -0.174520
    14  C   -0.127645
    15  C   -0.134699
    16  C   -0.127746
    17  C   -0.178326
    18  O   -0.613261
    19  O   -0.610789
    20  H    0.167139
    21  H    0.165275
    22  H    0.163446
    23  H    0.185888
    24  H    0.242411
    25  H    0.159462
    26  H    0.245010
    27  H    0.137939
    28  H    0.124175
    29  H    0.111705
    30  H    0.164917
    31  H    0.149075
    32  H    0.114888
    33  H    0.104697
    34  H    0.107825
    35  H    0.115263
 Sum of Mulliken charges =  -1.00000

 Dipole moment (field-independent basis, Debye):
    X=             -8.1076    Y=             -3.5295    Z=              3.6429  Tot=              9.5636
 Quadrupole moment (field-independent basis, Debye-Ang):
   XX=           -161.8906   YY=           -152.8160   ZZ=           -135.6655
   XY=             -1.5581   XZ=             10.9659   YZ=              5.4049

 Normal termination of Gaussian 16 at Tue Sep 22 02:08:29 2020.
 Gaussian 16:  ES64L-G16RevB.01 20-Dec-2017

 ----------------------------------------------------------------------
 #p mp2/aug-cc-pVDZ scf=(MaxCycle=2000,NoVarAcc,NoIncFock) maxdisk=120G
 B geom=allcheck
 ----------------------------------------------------------------------

 Structure from the checkpoint file:  "SM38_m1.a.10.pdb.xyz.mst.a.w.chk"
 --------------------
 SM38_m1.a.10.pdb.xyz
 --------------------
 Charge = -1 Multiplicity = 1

                         Standard orientation:
 ---------------------------------------------------------------------
 Center     Atomic      Atomic             Coordinates (Angstroms)
 Number     Number       Type             X           Y           Z
 ---------------------------------------------------------------------
      1          6           0        2.519416   -3.191836    0.186966
      2         16           0        2.338777   -1.445729   -0.216434
      3          7           0        1.148257   -1.044456    0.757812
      4          6           0        0.605315    0.297423    0.761332
      5          6           0        0.029197    0.842130   -0.620827
      6         16           0        0.876660    2.427033   -0.368403
      7          6           0        1.645518    1.482275    0.976685
      8          8           0        1.806845    2.811351   -1.456984
      9          8           0       -0.044702    3.472767    0.144457
     10          6           0       -0.451462    0.375556    1.889525
     11          6           0       -1.532097   -0.726756    1.914361
     12          6           0       -2.525704   -0.717673    0.769239
     13          6           0       -2.453320   -1.664969   -0.262533
     14          6           0       -3.370295   -1.653521   -1.317313
     15          6           0       -4.380744   -0.690070   -1.358299
     16          6           0       -4.468645    0.258048   -0.334219
     17          6           0       -3.551393    0.240240    0.718423
     18          8           0        3.668111   -0.808205    0.089890
     19          8           0        2.026084   -1.381177   -1.687521
     20          1           0        2.759132   -3.295322    1.246350
     21          1           0        3.336391   -3.581717   -0.424279
     22          1           0        1.591027   -3.715527   -0.046088
     23          1           0       -1.051552    0.947746   -0.706171
     24          1           0        0.449896    0.323388   -1.482685
     25          1           0        1.613129    1.997357    1.939166
     26          1           0        2.666176    1.205515    0.710734
     27          1           0       -0.927190    1.364329    1.860274
     28          1           0        0.093423    0.318111    2.840410
     29          1           0       -2.081554   -0.609505    2.857577
     30          1           0       -1.033371   -1.699307    1.958571
     31          1           0       -1.666015   -2.414576   -0.240534
     32          1           0       -3.294925   -2.398204   -2.105495
     33          1           0       -5.095582   -0.679699   -2.176597
     34          1           0       -5.255495    1.007733   -0.352131
     35          1           0       -3.633721    0.977038    1.514837
 ---------------------------------------------------------------------

 SCF Done:  E(RHF) =  -1612.64975926     A.U. after   16 cycles
