 Gaussian 16, Revision B.01,

 ----------------------------------------------------------------------
 #p b3lyp/6-31G(d) opt freq NoSymm scf=(MaxCycle=2000,NoVarAcc,NoIncFoc
 k) scrf=(iefpcm,read,solvent=water)
 ----------------------------------------------------------------------

 -------------------
 SM38_m0.n.7.pdb.xyz
 -------------------
 Symbolic Z-matrix:
 Charge =  0 Multiplicity = 1

 SCF Done:  E(RB3LYP) =  -1619.41264986     A.U. after   13 cycles
 SCF Done:  E(RB3LYP) =  -1619.41269621     A.U. after    9 cycles
 SCF Done:  E(RB3LYP) =  -1619.41266801     A.U. after    8 cycles
 SCF Done:  E(RB3LYP) =  -1619.41267297     A.U. after    9 cycles
 SCF Done:  E(RB3LYP) =  -1619.41267170     A.U. after    8 cycles
 SCF Done:  E(RB3LYP) =  -1619.41267290     A.U. after    8 cycles
 SCF Done:  E(RB3LYP) =  -1619.41267296     A.U. after    7 cycles
 Optimization completed.
    -- Stationary point found.
 Normal termination of Gaussian 16 at Tue Sep 22 01:56:24 2020.

 --------------------------------------------------------------------
 #P Geom=AllCheck Guess=TCheck SCRF=Check GenChk RB3LYP/6-31G(d) Freq
 --------------------------------------------------------------------

 Structure from the checkpoint file:  "SM38_m0.n.7.pdb.xyz.mst.n.w.chk"
 -------------------
 SM38_m0.n.7.pdb.xyz
 -------------------
 Charge =  0 Multiplicity = 1

 SCF Done:  E(RB3LYP) =  -1619.41267296     A.U. after    1 cycles

  Exact polarizability: 237.828  -6.211 242.898  33.919  -1.318 193.776
 Approx polarizability: 255.597  -2.779 281.970  37.251   0.577 230.739

                      1                      2                      3
                      A                      A                      A
 Frequencies --     15.0932                24.3059                38.4896
 Red. masses --      4.6158                 8.3587                 4.8653
 Frc consts  --      0.0006                 0.0029                 0.0042
 IR Inten    --      2.6234                 7.3651                 0.6784

                      4                      5                      6
                      A                      A                      A
 Frequencies --     45.3442                75.5350                94.6541
 Red. masses --      4.5354                 7.3075                 5.4118
 Frc consts  --      0.0055                 0.0246                 0.0286
 IR Inten    --      1.2143                 6.6744                 6.3604

                      7                      8                      9
                      A                      A                      A
 Frequencies --    120.6165               147.4409               185.4412
 Red. masses --      5.1299                 5.7021                 5.0962
 Frc consts  --      0.0440                 0.0730                 0.1033
 IR Inten    --      1.2823                 7.7389                10.2862

                     10                     11                     12
                      A                      A                      A
 Frequencies --    195.2458               199.2864               226.2101
 Red. masses --      3.6355                 1.2695                 4.4660
 Frc consts  --      0.0817                 0.0297                 0.1346
 IR Inten    --     10.6978                 5.8304                 1.1145

                     13                     14                     15
                      A                      A                      A
 Frequencies --    230.6725               278.2983               305.3485
 Red. masses --      3.5749                 4.1907                 2.6408
 Frc consts  --      0.1121                 0.1912                 0.1451
 IR Inten    --      1.0027                 5.3178                 3.0740

                     16                     17                     18
                      A                      A                      A
 Frequencies --    324.2952               334.5125               363.0792
 Red. masses --      3.0678                 2.8817                 2.7534
 Frc consts  --      0.1901                 0.1900                 0.2139
 IR Inten    --      8.3170                 2.7859                 3.4708

                     19                     20                     21
                      A                      A                      A
 Frequencies --    373.3657               399.3030               406.2869
 Red. masses --      6.0474                 3.0222                 2.8667
 Frc consts  --      0.4967                 0.2839                 0.2788
 IR Inten    --     55.0393                 3.2879                28.3531

                     22                     23                     24
                      A                      A                      A
 Frequencies --    418.7687               454.8905               462.5234
 Red. masses --      2.9631                 4.4705                 3.0585
 Frc consts  --      0.3062                 0.5450                 0.3855
 IR Inten    --      0.1739                42.1187                58.2866

                     25                     26                     27
                      A                      A                      A
 Frequencies --    490.2862               510.6547               539.4073
 Red. masses --      3.9786                 4.4750                 4.8363
 Frc consts  --      0.5635                 0.6875                 0.8291
 IR Inten    --      7.9987                 8.2805                66.1167

                     28                     29                     30
                      A                      A                      A
 Frequencies --    567.3208               574.8413               634.2354
 Red. masses --      4.0457                 3.9704                 6.2520
 Frc consts  --      0.7672                 0.7730                 1.4817
 IR Inten    --     48.9848                60.8608                 3.5608

                     31                     32                     33
                      A                      A                      A
 Frequencies --    646.8396               698.4963               715.4586
 Red. masses --      3.2916                 3.2046                 2.1396
 Frc consts  --      0.8114                 0.9212                 0.6453
 IR Inten    --     81.0647                36.8156                37.5795

                     34                     35                     36
                      A                      A                      A
 Frequencies --    757.6024               758.3483               764.0908
 Red. masses --      2.2768                 3.6083                 4.0606
 Frc consts  --      0.7699                 1.2226                 1.3968
 IR Inten    --     87.3390                81.6717                58.3690

                     37                     38                     39
                      A                      A                      A
 Frequencies --    779.9025               802.1871               817.8611
 Red. masses --      2.6718                 1.6961                 3.0358
 Frc consts  --      0.9575                 0.6430                 1.1964
 IR Inten    --     14.4439                44.8218                 6.0809

                     40                     41                     42
                      A                      A                      A
 Frequencies --    830.9590               864.7492               885.6450
 Red. masses --      2.5177                 1.2524                 2.2343
 Frc consts  --      1.0243                 0.5518                 1.0326
 IR Inten    --     37.5806                 0.1943                40.0808

                     43                     44                     45
                      A                      A                      A
 Frequencies --    909.2444               925.4055               952.8976
 Red. masses --      1.9633                 1.7004                 1.9114
 Frc consts  --      0.9563                 0.8580                 1.0226
 IR Inten    --     24.4587                18.8666                28.1953

                     46                     47                     48
                      A                      A                      A
 Frequencies --    979.0656              1002.0133              1008.4049
 Red. masses --      1.3584                 1.4138                 1.2576
 Frc consts  --      0.7672                 0.8363                 0.7535
 IR Inten    --      0.6513                46.6962                 0.7626

                     49                     50                     51
                      A                      A                      A
 Frequencies --   1009.6442              1015.1846              1017.0184
 Red. masses --      1.4027                 1.8440                 5.5884
 Frc consts  --      0.8424                 1.1197                 3.4056
 IR Inten    --     57.5089                13.3053                 0.8721

                     52                     53                     54
                      A                      A                      A
 Frequencies --   1031.4901              1061.1760              1063.3804
 Red. masses --      2.5868                 2.0363                 1.1503
 Frc consts  --      1.6216                 1.3510                 0.7664
 IR Inten    --     19.6498                 7.0282                 6.5405

                     55                     56                     57
                      A                      A                      A
 Frequencies --   1072.6110              1078.4776              1109.6893
 Red. masses --      2.3909                 4.0172                 5.5514
 Frc consts  --      1.6207                 2.7530                 4.0277
 IR Inten    --     24.9953               131.5889               410.7543

                     58                     59                     60
                      A                      A                      A
 Frequencies --   1118.8488              1166.2528              1188.9096
 Red. masses --      2.0346                 2.6578                 1.0970
 Frc consts  --      1.5006                 2.1299                 0.9136
 IR Inten    --     38.6337                15.8777                 0.3234

                     61                     62                     63
                      A                      A                      A
 Frequencies --   1192.9164              1213.3992              1219.7219
 Red. masses --      1.2841                 1.1864                 1.6728
 Frc consts  --      1.0767                 1.0292                 1.4663
 IR Inten    --      3.9131                 5.9481                93.7151

                     64                     65                     66
                      A                      A                      A
 Frequencies --   1228.2941              1240.4491              1255.1639
 Red. masses --      2.5011                 1.6761                 3.5604
 Frc consts  --      2.2232                 1.5195                 3.3048
 IR Inten    --      5.7600               103.5567               275.6935

                     67                     68                     69
                      A                      A                      A
 Frequencies --   1270.3600              1271.6863              1291.2570
 Red. masses --      1.7650                 5.0398                 1.8051
 Frc consts  --      1.6782                 4.8020                 1.7732
 IR Inten    --    134.6978               286.9522                87.4738

                     70                     71                     72
                      A                      A                      A
 Frequencies --   1346.5102              1364.6805              1373.6202
 Red. masses --      2.3818                 2.0733                 1.3753
 Frc consts  --      2.5443                 2.2750                 1.5289
 IR Inten    --      7.1246                 1.1531                 8.1731

                     73                     74                     75
                      A                      A                      A
 Frequencies --   1387.4421              1408.2708              1453.8703
 Red. masses --      1.2009                 1.4043                 1.0968
 Frc consts  --      1.3621                 1.6409                 1.3659
 IR Inten    --     18.4272                 8.5408                14.4221

                     76                     77                     78
                      A                      A                      A
 Frequencies --   1457.1502              1467.0796              1473.3439
 Red. masses --      1.1092                 1.0941                 1.0491
 Frc consts  --      1.3876                 1.3875                 1.3418
 IR Inten    --     72.2042                 4.1232                16.5823

                     79                     80                     81
                      A                      A                      A
 Frequencies --   1488.5960              1494.5422              1502.0543
 Red. masses --      1.0950                 1.1342                 2.0959
 Frc consts  --      1.4297                 1.4927                 2.7860
 IR Inten    --      3.1011                35.5555                 5.2672

                     82                     83                     84
                      A                      A                      A
 Frequencies --   1518.5488              1546.5617              1642.0507
 Red. masses --      1.0950                 2.1583                 5.4743
 Frc consts  --      1.4878                 3.0415                 8.6967
 IR Inten    --     15.8853                17.0841                 1.5597

                     85                     86                     87
                      A                      A                      A
 Frequencies --   1663.2164              3061.6954              3067.9642
 Red. masses --      5.5542                 1.0639                 1.0640
 Frc consts  --      9.0525                 5.8758                 5.9006
 IR Inten    --      8.3994                28.5119                32.4485

                     88                     89                     90
                      A                      A                      A
 Frequencies --   3109.2563              3113.0571              3113.6247
 Red. masses --      1.1008                 1.0988                 1.0295
 Frc consts  --      6.2699                 6.2738                 5.8805
 IR Inten    --     23.3930                49.7098                 0.3705

                     91                     92                     93
                      A                      A                      A
 Frequencies --   3135.8299              3149.9823              3193.2570
 Red. masses --      1.0577                 1.0594                 1.0854
 Frc consts  --      6.1282                 6.1933                 6.5209
 IR Inten    --      4.0020                 7.6951                 2.4429

                     94                     95                     96
                      A                      A                      A
 Frequencies --   3199.9593              3207.3456              3208.8656
 Red. masses --      1.0880                 1.0913                 1.1117
 Frc consts  --      6.5642                 6.6141                 6.7445
 IR Inten    --     10.6894                46.7056                15.9979

                     97                     98                     99
                      A                      A                      A
 Frequencies --   3214.9733              3218.4421              3223.8473
 Red. masses --      1.1067                 1.0937                 1.0969
 Frc consts  --      6.7399                 6.6746                 6.7171
 IR Inten    --      0.3242                59.2886                12.4339

                    100                    101                    102
                      A                      A                      A
 Frequencies --   3226.8172              3229.5687              3479.1520
 Red. masses --      1.1090                 1.1094                 1.0750
 Frc consts  --      6.8036                 6.8175                 7.6665
 IR Inten    --      0.1120                11.3572                84.7318

 - Thermochemistry -
 -------------------
 Temperature   298.150 Kelvin.  Pressure   1.00000 Atm.
 Atom     1 has atomic number  6 and mass  12.00000

 Molecular mass:   303.05990 amu.
 Principal axes and moments of inertia in atomic units:
                           1         2         3
     Eigenvalues --  3267.248899239.88154**********
           X            0.99993  -0.01119   0.00480
           Y            0.01090   0.99835   0.05644
           Z           -0.00542  -0.05638   0.99839
 This molecule is an asymmetric top.
 Rotational symmetry number  1.
 Warning -- assumption of classical behavior for rotation
           may cause significant error
 Rotational temperatures (Kelvin)      0.02651     0.00937     0.00803
 Rotational constants (GHZ):           0.55237     0.19532     0.16732
 Zero-point vibrational energy     753599.7 (Joules/Mol)
                                  180.11465 (Kcal/Mol)
 Warning -- explicit consideration of  29 degrees of freedom as
           vibrations may cause significant error
 Vibrational temperatures:     21.72    34.97    55.38    65.24   108.68
          (Kelvin)            136.19   173.54   212.13   266.81   280.92
                              286.73   325.47   331.89   400.41   439.33
                              466.59   481.29   522.39   537.19   574.51
                              584.56   602.51   654.49   665.47   705.41
                              734.72   776.09   816.25   827.07   912.52
                              930.66  1004.98  1029.39  1090.02  1091.09
                             1099.36  1122.11  1154.17  1176.72  1195.56
                             1244.18  1274.25  1308.20  1331.45  1371.01
                             1408.66  1441.67  1450.87  1452.65  1460.62
                             1463.26  1484.08  1526.80  1529.97  1543.25
                             1551.69  1596.60  1609.77  1677.98  1710.58
                             1716.34  1745.81  1754.91  1767.24  1784.73
                             1805.90  1827.76  1829.67  1857.83  1937.33
                             1963.47  1976.33  1996.22  2026.19  2091.80
                             2096.51  2110.80  2119.81  2141.76  2150.31
                             2161.12  2184.85  2225.16  2362.54  2393.00
                             4405.10  4414.12  4473.53  4478.99  4479.81
                             4511.76  4532.12  4594.38  4604.03  4614.65
                             4616.84  4625.63  4630.62  4638.40  4642.67
                             4646.63  5005.72

 Zero-point correction=                           0.287031 (Hartree/Particle)
 Thermal correction to Energy=                    0.305724
 Thermal correction to Enthalpy=                  0.306668
 Thermal correction to Gibbs Free Energy=         0.237874
 Sum of electronic and zero-point Energies=          -1619.125642
 Sum of electronic and thermal Energies=             -1619.106949
 Sum of electronic and thermal Enthalpies=           -1619.106005
 Sum of electronic and thermal Free Energies=        -1619.174799

                     E (Thermal)             CV                S
                      KCal/Mol        Cal/Mol-Kelvin    Cal/Mol-Kelvin
 Total                  191.845             71.824            144.790
 Electronic               0.000              0.000              0.000
 Translational            0.889              2.981             43.023
 Rotational               0.889              2.981             34.142
 Vibrational            190.067             65.862             67.624
 Vibration     1          0.593              1.986              7.193
 Vibration     2          0.593              1.985              6.247
 Vibration     3          0.594              1.982              5.335
 Vibration     4          0.595              1.979              5.011
 Vibration     5          0.599              1.965              4.004
 Vibration     6          0.603              1.953              3.562
 Vibration     7          0.609              1.932              3.090
 Vibration     8          0.617              1.905              2.705
 Vibration     9          0.632              1.860              2.273
 Vibration    10          0.636              1.846              2.177
 Vibration    11          0.637              1.841              2.140
 Vibration    12          0.650              1.801              1.909
 Vibration    13          0.652              1.794              1.874
 Vibration    14          0.679              1.714              1.544
 Vibration    15          0.696              1.664              1.387
 Vibration    16          0.709              1.627              1.288
 Vibration    17          0.716              1.607              1.238
 Vibration    18          0.737              1.548              1.109
 Vibration    19          0.745              1.527              1.066
 Vibration    20          0.765              1.472              0.965
 Vibration    21          0.771              1.457              0.940
 Vibration    22          0.782              1.429              0.896
 Vibration    23          0.813              1.350              0.781
 Vibration    24          0.820              1.333              0.759
 Vibration    25          0.846              1.272              0.683
 Vibration    26          0.866              1.226              0.632
 Vibration    27          0.894              1.163              0.567
 Vibration    28          0.923              1.102              0.509
 Vibration    29          0.931              1.086              0.495

                           ! Non-Optimized Parameters !
 Normal termination of Gaussian 16 at Tue Sep 22 02:10:22 2020.

 ----------------------------------------------------------------------
 #p b3lyp/6-31G(d) scrf=(iefpcm,read,solvent=water) geom=allcheck guess
 =read
 ----------------------------------------------------------------------

 Structure from the checkpoint file:  "SM38_m0.n.7.pdb.xyz.mst.n.w.chk"
 -------------------
 SM38_m0.n.7.pdb.xyz
 -------------------
 Charge =  0 Multiplicity = 1

 SCF Done:  E(RB3LYP) =  -1619.41269638     A.U. after    7 cycles
 Normal termination of Gaussian 16 at Tue Sep 22 02:11:12 2020.

 -----------------------------
 #p B3LYP/6-31G* geom=allcheck
 -----------------------------

 Structure from the checkpoint file:  "SM38_m0.n.7.pdb.xyz.mst.n.w.chk"
 -------------------
 SM38_m0.n.7.pdb.xyz
 -------------------
 Charge =  0 Multiplicity = 1

 SCF Done:  E(RB3LYP) =  -1619.37813827     A.U. after   15 cycles

 The electronic state is 1-A.
 Alpha  occ. eigenvalues --  -89.12817 -89.08235 -19.15196 -19.15139 -19.13636
 Alpha  occ. eigenvalues --  -19.13207 -14.39260 -10.28577 -10.24668 -10.22507
 Alpha  occ. eigenvalues --  -10.22222 -10.22110 -10.20957 -10.20545 -10.19776
 Alpha  occ. eigenvalues --  -10.19710 -10.19507 -10.19439 -10.19107  -8.15405
 Alpha  occ. eigenvalues --   -8.11278  -6.11917  -6.11779  -6.11715  -6.07692
 Alpha  occ. eigenvalues --   -6.07633  -6.07573  -1.11902  -1.08595  -1.00392
 Alpha  occ. eigenvalues --   -0.98127  -0.96021  -0.86732  -0.85688  -0.80283
 Alpha  occ. eigenvalues --   -0.79443  -0.75040  -0.74811  -0.72224  -0.69311
 Alpha  occ. eigenvalues --   -0.63798  -0.62177  -0.60960  -0.58684  -0.57317
 Alpha  occ. eigenvalues --   -0.55152  -0.52547  -0.52110  -0.50586  -0.49451
 Alpha  occ. eigenvalues --   -0.48930  -0.48230  -0.46861  -0.46289  -0.45908
 Alpha  occ. eigenvalues --   -0.45272  -0.45045  -0.44186  -0.43726  -0.42831
 Alpha  occ. eigenvalues --   -0.42177  -0.41375  -0.40666  -0.40167  -0.37692
 Alpha  occ. eigenvalues --   -0.37305  -0.36221  -0.34999  -0.34352  -0.34221
 Alpha  occ. eigenvalues --   -0.33493  -0.31866  -0.31236  -0.30923  -0.30127
 Alpha  occ. eigenvalues --   -0.28736  -0.28477  -0.27476  -0.25591  -0.24914
 Alpha virt. eigenvalues --   -0.01145  -0.00712   0.02561   0.03126   0.04436
 Alpha virt. eigenvalues --    0.05528   0.06240   0.06561   0.07359   0.08217
 Alpha virt. eigenvalues --    0.08633   0.09321   0.09817   0.10136   0.11558

 Mulliken charges:
               1
     1  C   -0.637073
     2  S    1.177283
     3  N   -0.705361
     4  C    0.185048
     5  C   -0.532463
     6  S    1.128529
     7  C   -0.514827
     8  O   -0.504388
     9  O   -0.537301
    10  C   -0.292809
    11  C   -0.375602
    12  C    0.149636
    13  C   -0.184049
    14  C   -0.128420
    15  C   -0.130277
    16  C   -0.126964
    17  C   -0.195911
    18  O   -0.524652
    19  O   -0.516827
    20  H    0.220147
    21  H    0.233475
    22  H    0.199406
    23  H    0.337303
    24  H    0.225606
    25  H    0.247355
    26  H    0.204151
    27  H    0.262640
    28  H    0.163987
    29  H    0.142550
    30  H    0.173634
    31  H    0.166535
    32  H    0.119393
    33  H    0.130610
    34  H    0.133443
    35  H    0.139829
    36  H    0.166363
 Sum of Mulliken charges =  -0.00000

 Dipole moment (field-independent basis, Debye):
    X=             -1.1937    Y=             -8.3973    Z=              3.0034  Tot=              8.9978
 Quadrupole moment (field-independent basis, Debye-Ang):
   XX=           -123.1877   YY=           -129.0471   ZZ=           -126.2997
   XY=            -15.0152   XZ=              9.8104   YZ=              3.2817

 Normal termination of Gaussian 16 at Tue Sep 22 02:12:12 2020.
 Gaussian 16:  ES64L-G16RevB.01 20-Dec-2017

 ----------------------------------------------------------------------
 #p mp2/aug-cc-pVDZ scf=(MaxCycle=2000,NoVarAcc,NoIncFock) maxdisk=120G
 B geom=allcheck
 ----------------------------------------------------------------------

 Structure from the checkpoint file:  "SM38_m0.n.7.pdb.xyz.mst.n.w.chk"
 -------------------
 SM38_m0.n.7.pdb.xyz
 -------------------
 Charge =  0 Multiplicity = 1

                         Standard orientation:
 ---------------------------------------------------------------------
 Center     Atomic      Atomic             Coordinates (Angstroms)
 Number     Number       Type             X           Y           Z
 ---------------------------------------------------------------------
      1          6           0        4.146423   -2.240227   -0.036594
      2         16           0        3.148787   -0.792962   -0.379184
      3          7           0        1.742079   -1.204213    0.467914
      4          6           0        0.599171   -0.275220    0.616833
      5          6           0        0.066681    0.359936   -0.720313
      6         16           0        0.421632    2.033863   -0.083200
      7          6           0        1.001231    1.049871    1.339801
      8          8           0        1.511132    2.714795   -0.811554
      9          8           0       -0.798256    2.810283    0.223510
     10          6           0       -0.447268   -1.082212    1.412273
     11          6           0       -1.792995   -0.390227    1.716119
     12          6           0       -2.867356   -0.527653    0.653295
     13          6           0       -3.254550   -1.789610    0.178511
     14          6           0       -4.277767   -1.918964   -0.760439
     15          6           0       -4.937189   -0.784958   -1.242152
     16          6           0       -4.563238    0.475801   -0.776471
     17          6           0       -3.537862    0.600731    0.163841
     18          8           0        3.739424    0.385961    0.277880
     19          8           0        2.926589   -0.710027   -1.837105
     20          1           0        4.282041   -2.326896    1.039975
     21          1           0        5.100770   -2.074972   -0.536869
     22          1           0        3.655480   -3.121567   -0.447479
     23          1           0        1.416168   -2.099167    0.093652
     24          1           0       -0.994553    0.216349   -0.918229
     25          1           0        0.667199    0.130938   -1.600656
     26          1           0        0.425775    1.269982    2.237921
     27          1           0        2.068224    1.171376    1.507779
     28          1           0        0.036204   -1.355650    2.354511
     29          1           0       -0.643715   -2.017960    0.877473
     30          1           0       -1.643106    0.670033    1.941829
     31          1           0       -2.170226   -0.836976    2.642920
     32          1           0       -2.755883   -2.679202    0.550823
     33          1           0       -4.563209   -2.904866   -1.112660
     34          1           0       -5.734192   -0.885487   -1.973217
     35          1           0       -5.067382    1.364502   -1.143571
     36          1           0       -3.243653    1.582937    0.518472
 ---------------------------------------------------------------------

 SCF Done:  E(RHF) =  -1613.17892934     A.U. after   16 cycles
