 Gaussian 16, Revision B.01,

 ----------------------------------------------------------------------
 #p b3lyp/6-31G(d) opt freq NoSymm scf=(MaxCycle=2000,NoVarAcc,NoIncFoc
 k) scrf=(iefpcm,read,solvent=water)
 ----------------------------------------------------------------------

 --------------------
 SM38_m0.n.14.pdb.xyz
 --------------------
 Symbolic Z-matrix:
 Charge =  0 Multiplicity = 1

 SCF Done:  E(RB3LYP) =  -1619.41588152     A.U. after   13 cycles
 SCF Done:  E(RB3LYP) =  -1619.41557713     A.U. after   10 cycles
 SCF Done:  E(RB3LYP) =  -1619.41565939     A.U. after   10 cycles
 SCF Done:  E(RB3LYP) =  -1619.41587506     A.U. after   10 cycles
 SCF Done:  E(RB3LYP) =  -1619.41588163     A.U. after    9 cycles
 SCF Done:  E(RB3LYP) =  -1619.41408796     A.U. after   11 cycles
 SCF Done:  E(RB3LYP) =  -1619.41456534     A.U. after   11 cycles
 SCF Done:  E(RB3LYP) =  -1619.41590973     A.U. after    7 cycles
 SCF Done:  E(RB3LYP) =  -1619.41587194     A.U. after   10 cycles
 SCF Done:  E(RB3LYP) =  -1619.41554940     A.U. after   10 cycles
 SCF Done:  E(RB3LYP) =  -1619.41571235     A.U. after    9 cycles
 SCF Done:  E(RB3LYP) =  -1619.41571640     A.U. after    9 cycles
 SCF Done:  E(RB3LYP) =  -1619.41571879     A.U. after    8 cycles
 SCF Done:  E(RB3LYP) =  -1619.41571712     A.U. after    7 cycles
 SCF Done:  E(RB3LYP) =  -1619.41571573     A.U. after    7 cycles
 SCF Done:  E(RB3LYP) =  -1619.41571639     A.U. after    7 cycles
 Optimization completed.
    -- Stationary point found.
 Normal termination of Gaussian 16 at Mon Sep 21 08:21:13 2020.

 --------------------------------------------------------------------
 #P Geom=AllCheck Guess=TCheck SCRF=Check GenChk RB3LYP/6-31G(d) Freq
 --------------------------------------------------------------------

 Structure from the checkpoint file:  "SM38_m0.n.14.pdb.xyz.mst.n.w.chk"
 --------------------
 SM38_m0.n.14.pdb.xyz
 --------------------
 Charge =  0 Multiplicity = 1

 SCF Done:  E(RB3LYP) =  -1619.41571639     A.U. after    1 cycles

  Exact polarizability: 252.300 -25.149 203.082  11.166  23.745 221.983
 Approx polarizability: 272.272 -31.413 227.119   7.112  29.902 271.046

                      1                      2                      3
                      A                      A                      A
 Frequencies --     15.5473                30.6554                39.8282
 Red. masses --      5.2195                 5.4355                 4.9456
 Frc consts  --      0.0007                 0.0030                 0.0046
 IR Inten    --      5.0270                 6.5122                 2.8286

                      4                      5                      6
                      A                      A                      A
 Frequencies --     49.0545                61.1968                91.8688
 Red. masses --      5.4242                 5.6130                 4.7491
 Frc consts  --      0.0077                 0.0124                 0.0236
 IR Inten    --      0.0566                13.2869                 7.1739

                      7                      8                      9
                      A                      A                      A
 Frequencies --    119.9125               134.8923               177.2129
 Red. masses --      5.8775                 6.2201                 3.9605
 Frc consts  --      0.0498                 0.0667                 0.0733
 IR Inten    --      3.8464                 2.9854                 2.6744

                     10                     11                     12
                      A                      A                      A
 Frequencies --    198.4484               231.9438               257.4188
 Red. masses --      5.6043                 8.0874                 1.4051
 Frc consts  --      0.1300                 0.2563                 0.0549
 IR Inten    --      0.7971                 0.7956                10.7997

                     13                     14                     15
                      A                      A                      A
 Frequencies --    276.4777               279.1180               303.7557
 Red. masses --      2.5456                 2.4082                 3.7577
 Frc consts  --      0.1146                 0.1105                 0.2043
 IR Inten    --      3.2426                 6.7331                 0.1576

                     16                     17                     18
                      A                      A                      A
 Frequencies --    308.1083               328.7233               345.2642
 Red. masses --      3.7467                 2.0899                 4.0259
 Frc consts  --      0.2096                 0.1331                 0.2828
 IR Inten    --      0.9394                 2.0904                 5.3446

                     19                     20                     21
                      A                      A                      A
 Frequencies --    361.5613               397.8460               418.8561
 Red. masses --      2.8472                 2.3980                 3.0288
 Frc consts  --      0.2193                 0.2236                 0.3131
 IR Inten    --      9.5629                 2.4842                 5.6375

                     22                     23                     24
                      A                      A                      A
 Frequencies --    420.3560               446.8095               474.6651
 Red. masses --      4.1520                 3.8158                 2.3454
 Frc consts  --      0.4323                 0.4488                 0.3113
 IR Inten    --     76.3531                66.6767                49.3939

                     25                     26                     27
                      A                      A                      A
 Frequencies --    477.7832               497.3276               524.1827
 Red. masses --      3.0207                 3.9898                 5.6942
 Frc consts  --      0.4063                 0.5814                 0.9218
 IR Inten    --     10.6513                44.9251               140.3032

                     28                     29                     30
                      A                      A                      A
 Frequencies --    531.0843               575.1485               624.0844
 Red. masses --      4.6136                 2.7145                 5.4159
 Frc consts  --      0.7667                 0.5291                 1.2428
 IR Inten    --     34.1393                19.3775                67.3218

                     31                     32                     33
                      A                      A                      A
 Frequencies --    634.3547               716.6001               719.3954
 Red. masses --      6.3515                 2.2481                 2.5429
 Frc consts  --      1.5059                 0.6802                 0.7754
 IR Inten    --      0.9814                11.7535                39.5066

                     34                     35                     36
                      A                      A                      A
 Frequencies --    736.6882               760.9442               763.7235
 Red. masses --      6.1630                 2.0884                 3.6775
 Frc consts  --      1.9707                 0.7125                 1.2638
 IR Inten    --    126.0337                43.3699                78.7763

                     37                     38                     39
                      A                      A                      A
 Frequencies --    779.5775               803.8246               828.7523
 Red. masses --      3.1837                 3.1270                 1.6640
 Frc consts  --      1.1400                 1.1904                 0.6734
 IR Inten    --      8.2551                 4.8150                13.6013

                     40                     41                     42
                      A                      A                      A
 Frequencies --    837.9118               865.0463               886.5614
 Red. masses --      3.1288                 1.2535                 2.2187
 Frc consts  --      1.2943                 0.5526                 1.0275
 IR Inten    --     63.4255                 0.0193                 7.0621

                     43                     44                     45
                      A                      A                      A
 Frequencies --    913.2599               940.1387               964.7084
 Red. masses --      2.1839                 1.7152                 1.9917
 Frc consts  --      1.0732                 0.8932                 1.0921
 IR Inten    --     15.7100                 3.2699                13.1168

                     46                     47                     48
                      A                      A                      A
 Frequencies --    977.3886               998.1428              1005.3819
 Red. masses --      1.3586                 2.3206                 1.3957
 Frc consts  --      0.7647                 1.3622                 0.8312
 IR Inten    --      0.0910                76.7503                69.3020

                     49                     50                     51
                      A                      A                      A
 Frequencies --   1005.7265              1007.3586              1016.5507
 Red. masses --      1.2599                 1.3762                 6.1404
 Frc consts  --      0.7508                 0.8228                 3.7386
 IR Inten    --      0.5334                25.8752                 0.4181

                     52                     53                     54
                      A                      A                      A
 Frequencies --   1032.4646              1047.9174              1057.5757
 Red. masses --      1.9259                 1.3903                 2.0000
 Frc consts  --      1.2096                 0.8996                 1.3179
 IR Inten    --      8.9978                 2.7556                10.7945

                     55                     56                     57
                      A                      A                      A
 Frequencies --   1067.3239              1089.6973              1104.9935
 Red. masses --      2.3802                 2.0445                 2.4609
 Frc consts  --      1.5976                 1.4304                 1.7704
 IR Inten    --    246.4136                36.4186               128.4391

                     58                     59                     60
                      A                      A                      A
 Frequencies --   1118.5846              1134.3553              1189.3112
 Red. masses --      8.7339                 2.4838                 1.1015
 Frc consts  --      6.4387                 1.8830                 0.9180
 IR Inten    --    295.1152                29.2704                 0.0490

                     61                     62                     63
                      A                      A                      A
 Frequencies --   1191.7832              1205.6263              1207.1374
 Red. masses --      1.3090                 1.4011                 1.1365
 Frc consts  --      1.0954                 1.1999                 0.9758
 IR Inten    --      7.1383                22.5778                 1.6711

                     64                     65                     66
                      A                      A                      A
 Frequencies --   1230.8621              1249.4934              1267.3555
 Red. masses --      2.4761                 1.7181                 3.3265
 Frc consts  --      2.2102                 1.5804                 3.1480
 IR Inten    --      1.9581                74.2465               131.6429

                     67                     68                     69
                      A                      A                      A
 Frequencies --   1278.9206              1299.6979              1309.1534
 Red. masses --      3.5871                 4.7024                 1.6223
 Frc consts  --      3.4568                 4.6801                 1.6381
 IR Inten    --    391.2918               262.8349                51.0931

                     70                     71                     72
                      A                      A                      A
 Frequencies --   1354.1267              1363.4284              1387.3417
 Red. masses --      2.9040                 1.6361                 1.2712
 Frc consts  --      3.1373                 1.7920                 1.4416
 IR Inten    --      0.3579                 0.0165                 9.9333

                     73                     74                     75
                      A                      A                      A
 Frequencies --   1389.2673              1407.1657              1456.4452
 Red. masses --      1.2769                 1.3702                 1.0995
 Frc consts  --      1.4520                 1.5986                 1.3741
 IR Inten    --      6.6598                 8.5048                29.8927

                     76                     77                     78
                      A                      A                      A
 Frequencies --   1465.1819              1479.7246              1485.9023
 Red. masses --      1.1385                 1.0489                 1.0550
 Frc consts  --      1.4400                 1.3531                 1.3725
 IR Inten    --     24.3011                 8.7641                12.2022

                     79                     80                     81
                      A                      A                      A
 Frequencies --   1491.6997              1500.6969              1501.6353
 Red. masses --      1.2140                 1.8279                 1.1471
 Frc consts  --      1.5916                 2.4255                 1.5240
 IR Inten    --      7.9432                13.1272                50.9672

                     82                     83                     84
                      A                      A                      A
 Frequencies --   1516.0423              1543.6060              1641.2662
 Red. masses --      1.1012                 2.2445                 5.4455
 Frc consts  --      1.4912                 3.1510                 8.6427
 IR Inten    --      0.1864                16.4461                 1.4321

                     85                     86                     87
                      A                      A                      A
 Frequencies --   1661.7938              3063.9045              3086.6057
 Red. masses --      5.6780                 1.0681                 1.0661
 Frc consts  --      9.2385                 5.9079                 5.9844
 IR Inten    --      8.0022                44.2176                21.3548

                     88                     89                     90
                      A                      A                      A
 Frequencies --   3108.7996              3130.6128              3135.7049
 Red. masses --      1.0299                 1.0942                 1.0606
 Frc consts  --      5.8645                 6.3183                 6.1443
 IR Inten    --      0.0783                28.7220                 4.1031

                     91                     92                     93
                      A                      A                      A
 Frequencies --   3143.3765              3145.6284              3191.2439
 Red. masses --      1.0575                 1.0980                 1.0855
 Frc consts  --      6.1566                 6.4015                 6.5133
 IR Inten    --      1.4940                22.5048                 9.9139

                     94                     95                     96
                      A                      A                      A
 Frequencies --   3195.0782              3203.3569              3207.7564
 Red. masses --      1.0872                 1.0906                 1.1069
 Frc consts  --      6.5391                 6.5936                 6.7104
 IR Inten    --      6.6371                23.9050                 0.1889

                     97                     98                     99
                      A                      A                      A
 Frequencies --   3210.3106              3216.4275              3218.0598
 Red. masses --      1.0942                 1.1119                 1.1081
 Frc consts  --      6.6440                 6.7773                 6.7612
 IR Inten    --     77.4405                 0.5019                 6.6640

                    100                    101                    102
                      A                      A                      A
 Frequencies --   3221.6554              3223.2683              3524.2214
 Red. masses --      1.0978                 1.1080                 1.0765
 Frc consts  --      6.7133                 6.7821                 7.8779
 IR Inten    --     28.5678                 0.3878               103.4799

 - Thermochemistry -
 -------------------
 Temperature   298.150 Kelvin.  Pressure   1.00000 Atm.
 Atom     1 has atomic number  6 and mass  12.00000

 Molecular mass:   303.05990 amu.
 Principal axes and moments of inertia in atomic units:
                           1         2         3
     Eigenvalues --  4774.470727223.56962**********
           X            1.00000   0.00180  -0.00226
           Y           -0.00181   0.99998  -0.00651
           Z            0.00225   0.00652   0.99998
 This molecule is an asymmetric top.
 Rotational symmetry number  1.
 Warning -- assumption of classical behavior for rotation
           may cause significant error
 Rotational temperatures (Kelvin)      0.01814     0.01199     0.00846
 Rotational constants (GHZ):           0.37800     0.24984     0.17627
 Zero-point vibrational energy     754333.8 (Joules/Mol)
                                  180.29009 (Kcal/Mol)
 Warning -- explicit consideration of  29 degrees of freedom as
           vibrations may cause significant error
 Vibrational temperatures:     22.37    44.11    57.30    70.58    88.05
          (Kelvin)            132.18   172.53   194.08   254.97   285.52
                              333.72   370.37   397.79   401.59   437.04
                              443.30   472.96   496.76   520.21   572.41
                              602.64   604.80   642.86   682.94   687.42
                              715.54   754.18   764.11   827.51   897.92
                              912.69  1031.03  1035.05  1059.93  1094.83
                             1098.83  1121.64  1156.52  1192.39  1205.57
                             1244.61  1275.56  1313.98  1352.65  1388.00
                             1406.24  1436.10  1446.52  1447.02  1449.36
                             1462.59  1485.49  1507.72  1521.62  1535.64
                             1567.83  1589.84  1609.39  1632.08  1711.15
                             1714.71  1734.63  1736.80  1770.94  1797.74
                             1823.44  1840.08  1869.98  1883.58  1948.29
                             1961.67  1996.08  1998.85  2024.60  2095.50
                             2108.07  2128.99  2137.88  2146.22  2159.17
                             2160.52  2181.25  2220.90  2361.42  2390.95
                             4408.28  4440.94  4472.87  4504.25  4511.58
                             4522.62  4525.86  4591.49  4597.00  4608.92
                             4615.25  4618.92  4627.72  4630.07  4635.24
                             4637.56  5070.57

 Zero-point correction=                           0.287311 (Hartree/Particle)
 Thermal correction to Energy=                    0.305985
 Thermal correction to Enthalpy=                  0.306929
 Thermal correction to Gibbs Free Energy=         0.238327
 Sum of electronic and zero-point Energies=          -1619.128406
 Sum of electronic and thermal Energies=             -1619.109731
 Sum of electronic and thermal Enthalpies=           -1619.108787
 Sum of electronic and thermal Free Energies=        -1619.177389

                     E (Thermal)             CV                S
                      KCal/Mol        Cal/Mol-Kelvin    Cal/Mol-Kelvin
 Total                  192.008             71.895            144.385
 Electronic               0.000              0.000              0.000
 Translational            0.889              2.981             43.023
 Rotational               0.889              2.981             34.223
 Vibrational            190.231             65.934             67.139
 Vibration     1          0.593              1.986              7.134
 Vibration     2          0.594              1.984              5.787
 Vibration     3          0.594              1.981              5.268
 Vibration     4          0.595              1.978              4.855
 Vibration     5          0.597              1.973              4.418
 Vibration     6          0.602              1.955              3.620
 Vibration     7          0.609              1.933              3.102
 Vibration     8          0.613              1.918              2.875
 Vibration     9          0.628              1.870              2.358
 Vibration    10          0.637              1.842              2.147
 Vibration    11          0.653              1.792              1.864
 Vibration    12          0.667              1.750              1.679
 Vibration    13          0.678              1.717              1.555
 Vibration    14          0.679              1.712              1.539
 Vibration    15          0.695              1.667              1.396
 Vibration    16          0.698              1.658              1.372
 Vibration    17          0.712              1.618              1.266
 Vibration    18          0.724              1.585              1.188
 Vibration    19          0.736              1.551              1.115
 Vibration    20          0.764              1.475              0.971
 Vibration    21          0.782              1.429              0.896
 Vibration    22          0.783              1.426              0.891
 Vibration    23          0.806              1.368              0.805
 Vibration    24          0.831              1.306              0.725
 Vibration    25          0.834              1.299              0.716
 Vibration    26          0.853              1.256              0.665
 Vibration    27          0.879              1.196              0.600
 Vibration    28          0.886              1.181              0.585
 Vibration    29          0.932              1.085              0.494

 Optimization completed.
    -- Stationary point found.
 Normal termination of Gaussian 16 at Mon Sep 21 08:36:19 2020.

 ----------------------------------------------------------------------
 #p b3lyp/6-31G(d) scrf=(iefpcm,read,solvent=water) geom=allcheck guess
 =read
 ----------------------------------------------------------------------

 Structure from the checkpoint file:  "SM38_m0.n.14.pdb.xyz.mst.n.w.chk"
 --------------------
 SM38_m0.n.14.pdb.xyz
 --------------------
 Charge =  0 Multiplicity = 1

 SCF Done:  E(RB3LYP) =  -1619.41567879     A.U. after    6 cycles
 Normal termination of Gaussian 16 at Mon Sep 21 08:37:44 2020.

 -----------------------------
 #p B3LYP/6-31G* geom=allcheck
 -----------------------------

 Structure from the checkpoint file:  "SM38_m0.n.14.pdb.xyz.mst.n.w.chk"
 --------------------
 SM38_m0.n.14.pdb.xyz
 --------------------
 Charge =  0 Multiplicity = 1

 SCF Done:  E(RB3LYP) =  -1619.38204474     A.U. after   15 cycles
 Normal termination of Gaussian 16 at Mon Sep 21 08:38:54 2020.
 Gaussian 16:  ES64L-G16RevB.01 20-Dec-2017

 ----------------------------------------------------------------------
 #p mp2/aug-cc-pVDZ scf=(MaxCycle=2000,NoVarAcc,NoIncFock) maxdisk=120G
 B geom=allcheck
 ----------------------------------------------------------------------

 Structure from the checkpoint file:  "SM38_m0.n.14.pdb.xyz.mst.n.w.chk"
 --------------------
 SM38_m0.n.14.pdb.xyz
 --------------------
 Charge =  0 Multiplicity = 1

                         Standard orientation:
 ---------------------------------------------------------------------
 Center     Atomic      Atomic             Coordinates (Angstroms)
 Number     Number       Type             X           Y           Z
 ---------------------------------------------------------------------
      1          6           0        4.091616   -0.432915   -0.236969
      2         16           0        2.645100   -1.495967   -0.123172
      3          7           0        1.298862   -0.624115   -0.613930
      4          6           0        0.624758    0.418265    0.178433
      5          6           0       -0.421050    1.138350   -0.747551
      6         16           0        0.186669    2.762916   -0.187973
      7          6           0        1.485907    1.697228    0.506763
      8          8           0        0.645370    3.646551   -1.276665
      9          8           0       -0.678641    3.335779    0.864072
     10          6           0       -0.009878   -0.138133    1.468565
     11          6           0       -0.882903   -1.399433    1.325204
     12          6           0       -2.180388   -1.243300    0.559726
     13          6           0       -2.353434   -1.860018   -0.686224
     14          6           0       -3.547056   -1.722487   -1.398341
     15          6           0       -4.592684   -0.962853   -0.871798
     16          6           0       -4.437316   -0.348518    0.374128
     17          6           0       -3.243964   -0.491832    1.082563
     18          8           0        2.799814   -2.552788   -1.132440
     19          8           0        2.457308   -1.860404    1.287710
     20          1           0        4.198704   -0.097035   -1.267965
     21          1           0        4.949680   -1.038467    0.058118
     22          1           0        3.976726    0.411440    0.440533
     23          1           0        1.388662   -0.402778   -1.604915
     24          1           0       -1.469930    0.962652   -0.520380
     25          1           0       -0.232588    1.017517   -1.815250
     26          1           0        1.696003    1.887144    1.558587
     27          1           0        2.388019    1.790538   -0.094857
     28          1           0       -0.588669    0.673779    1.921521
     29          1           0        0.800840   -0.372785    2.161234
     30          1           0       -1.108770   -1.734825    2.343827
     31          1           0       -0.285147   -2.187484    0.862341
     32          1           0       -1.541356   -2.450806   -1.099933
     33          1           0       -3.658511   -2.208735   -2.362330
     34          1           0       -5.521409   -0.853375   -1.423065
     35          1           0       -5.248245    0.237841    0.796745
     36          1           0       -3.136808   -0.016235    2.053204
 ---------------------------------------------------------------------

 SCF Done:  E(RHF) =  -1613.18665814     A.U. after   16 cycles
 E2 =    -0.2991731493D+01 EUMP2 =    -0.16161783896316D+04

 The electronic state is 1-A.
 Alpha  occ. eigenvalues --  -92.24669 -92.20986 -20.57800 -20.57458 -20.57081
 Alpha  occ. eigenvalues --  -20.56787 -15.64230 -11.35261 -11.31092 -11.30723
 Alpha  occ. eigenvalues --  -11.30418 -11.25839 -11.25725 -11.25230 -11.25195
 Alpha  occ. eigenvalues --  -11.24867 -11.24770 -11.24707 -11.24700  -9.21457
 Alpha  occ. eigenvalues --   -9.18261  -6.89997  -6.89952  -6.89838  -6.86752
 Alpha  occ. eigenvalues --   -6.86656  -6.86592  -1.47722  -1.45136  -1.35561
 Alpha  occ. eigenvalues --   -1.33875  -1.28045  -1.16814  -1.15718  -1.08099
 Alpha  occ. eigenvalues --   -1.06406  -1.02437  -1.01547  -0.99655  -0.93306
 Alpha  occ. eigenvalues --   -0.88634  -0.83927  -0.83534  -0.80790  -0.79290
 Alpha  occ. eigenvalues --   -0.75037  -0.72470  -0.70884  -0.70181  -0.68742
 Alpha  occ. eigenvalues --   -0.67359  -0.67149  -0.65804  -0.64635  -0.64263
 Alpha  occ. eigenvalues --   -0.64018  -0.62870  -0.62151  -0.61522  -0.59868
 Alpha  occ. eigenvalues --   -0.59521  -0.58867  -0.57253  -0.54977  -0.53991
 Alpha  occ. eigenvalues --   -0.52371  -0.51809  -0.50906  -0.49819  -0.49782
 Alpha  occ. eigenvalues --   -0.49716  -0.49080  -0.48887  -0.47929  -0.47314
 Alpha  occ. eigenvalues --   -0.46850  -0.45353  -0.43096  -0.34621  -0.33579
 Alpha virt. eigenvalues --    0.02289   0.03121   0.03530   0.04254   0.04395
 Alpha virt. eigenvalues --    0.04544   0.05557   0.05756   0.06281   0.06576
 Alpha virt. eigenvalues --    0.07362   0.07823   0.08280   0.08524   0.09225

 Mulliken charges:
               1
     1  C    0.206041
     2  S    2.669318
     3  N   -1.086266
     4  C   -0.280459
     5  C    0.412046
     6  S    3.041774
     7  C    0.738775
     8  O   -1.261335
     9  O   -1.271116
    10  C    0.501536
    11  C    0.434605
    12  C    0.835739
    13  C    0.638326
    14  C    0.017860
    15  C    0.731445
    16  C    0.099742
    17  C    0.542417
    18  O   -1.151323
    19  O   -1.195938
    20  H    0.021438
    21  H   -0.042299
    22  H    0.039056
    23  H   -0.127572
    24  H   -0.137108
    25  H   -0.363538
    26  H   -0.364277
    27  H   -0.289754
    28  H   -0.150493
    29  H   -0.029363
    30  H   -0.086772
    31  H   -0.291185
    32  H   -0.709115
    33  H   -0.478044
    34  H   -0.448308
    35  H   -0.483877
    36  H   -0.681977
 Sum of Mulliken charges =  -0.00000

 Dipole moment (field-independent basis, Debye):
    X=              1.8395    Y=             -0.6568    Z=             -0.5319  Tot=              2.0244
 Quadrupole moment (field-independent basis, Debye-Ang):
   XX=           -109.6583   YY=           -171.0709   ZZ=           -128.6301
   XY=             12.8134   XZ=              2.8534   YZ=              4.3820

 Normal termination of Gaussian 16 at Mon Sep 21 12:19:24 2020.
