 Gaussian 16, Revision B.01,

 ----------------------------------------------------------------------
 #p b3lyp/6-31G(d) opt freq NoSymm scf=(MaxCycle=2000,NoVarAcc,NoIncFoc
 k) scrf=(iefpcm,read,solvent=water) MaxDisk=20GB
 ----------------------------------------------------------------------

 --------------------
 SM38_m0.n.13.pdb.xyz
 --------------------
 Symbolic Z-matrix:
 Charge =  0 Multiplicity = 1

 SCF Done:  E(RB3LYP) =  -1619.41795430     A.U. after   13 cycles
 SCF Done:  E(RB3LYP) =  -1619.41796737     A.U. after   10 cycles
 SCF Done:  E(RB3LYP) =  -1619.41805249     A.U. after    9 cycles
 SCF Done:  E(RB3LYP) =  -1619.41798188     A.U. after    9 cycles
 SCF Done:  E(RB3LYP) =  -1619.41805930     A.U. after    8 cycles
 SCF Done:  E(RB3LYP) =  -1619.41803749     A.U. after    8 cycles
 SCF Done:  E(RB3LYP) =  -1619.41803850     A.U. after    8 cycles
 SCF Done:  E(RB3LYP) =  -1619.41804039     A.U. after    7 cycles
 SCF Done:  E(RB3LYP) =  -1619.41804008     A.U. after    6 cycles
 Optimization completed.
    -- Stationary point found.
 Normal termination of Gaussian 16 at Tue Sep 15 07:36:56 2020.

 --------------------------------------------------------------------
 #P Geom=AllCheck Guess=TCheck SCRF=Check GenChk RB3LYP/6-31G(d) Freq
 --------------------------------------------------------------------

 Structure from the checkpoint file:  "SM38_m0.n.13.pdb.xyz.mst.n.w.chk"
 --------------------
 SM38_m0.n.13.pdb.xyz
 --------------------
 Charge =  0 Multiplicity = 1

 SCF Done:  E(RB3LYP) =  -1619.41804008     A.U. after    1 cycles

  Exact polarizability: 256.989 -24.310 198.293   4.448  12.655 221.576
 Approx polarizability: 283.004 -20.874 219.373   1.257  13.431 264.757

                      1                      2                      3
                      A                      A                      A
 Frequencies --     18.4630                31.6279                37.0779
 Red. masses --      3.9375                 4.8634                 6.2373
 Frc consts  --      0.0008                 0.0029                 0.0051
 IR Inten    --      0.8177                 5.4403                 1.5368

                      4                      5                      6
                      A                      A                      A
 Frequencies --     44.2468                51.0720               100.4520
 Red. masses --      5.1623                 7.2411                 3.2031
 Frc consts  --      0.0060                 0.0111                 0.0190
 IR Inten    --     10.3293                 2.0802                 6.1122

                      7                      8                      9
                      A                      A                      A
 Frequencies --    115.2094               140.8252               173.3117
 Red. masses --      3.8991                 8.3398                 6.8303
 Frc consts  --      0.0305                 0.0974                 0.1209
 IR Inten    --      2.0053                 3.1826                 2.5174

                     10                     11                     12
                      A                      A                      A
 Frequencies --    192.6262               210.2121               238.6950
 Red. masses --      4.3409                 4.4035                 1.7097
 Frc consts  --      0.0949                 0.1146                 0.0574
 IR Inten    --      5.4102                 1.9994                 3.1248

                     13                     14                     15
                      A                      A                      A
 Frequencies --    253.3223               282.5796               289.7514
 Red. masses --      2.1523                 3.0608                 3.4570
 Frc consts  --      0.0814                 0.1440                 0.1710
 IR Inten    --      1.6300                 6.6902                 9.1484

                     16                     17                     18
                      A                      A                      A
 Frequencies --    323.2010               327.4009               345.4287
 Red. masses --      2.9211                 3.1023                 3.6053
 Frc consts  --      0.1798                 0.1959                 0.2535
 IR Inten    --      0.8934                 1.5098                24.2157

                     19                     20                     21
                      A                      A                      A
 Frequencies --    353.5295               374.3395               418.1283
 Red. masses --      3.3409                 3.5820                 2.9986
 Frc consts  --      0.2460                 0.2957                 0.3089
 IR Inten    --      4.5751                18.7565                 0.0306

                     22                     23                     24
                      A                      A                      A
 Frequencies --    431.0406               447.9229               478.9878
 Red. masses --      4.0212                 4.2735                 2.4168
 Frc consts  --      0.4402                 0.5052                 0.3267
 IR Inten    --     10.6912                20.5386                22.5480

                     25                     26                     27
                      A                      A                      A
 Frequencies --    489.4865               508.7176               523.5632
 Red. masses --      6.0364                 2.5063                 3.7257
 Frc consts  --      0.8521                 0.3822                 0.6017
 IR Inten    --     88.7823                89.2474               110.8256

                     28                     29                     30
                      A                      A                      A
 Frequencies --    555.4531               590.6057               614.6403
 Red. masses --      4.4704                 4.3269                 4.6080
 Frc consts  --      0.8126                 0.8892                 1.0257
 IR Inten    --     89.1581                45.6725                 8.8877

                     31                     32                     33
                      A                      A                      A
 Frequencies --    634.3518               708.7240               723.1669
 Red. masses --      6.3191                 3.2246                 1.7428
 Frc consts  --      1.4982                 0.9543                 0.5370
 IR Inten    --      0.2954                 3.1784                46.4530

                     34                     35                     36
                      A                      A                      A
 Frequencies --    737.7305               760.5492               771.7091
 Red. masses --      4.5155                 4.8622                 1.3724
 Frc consts  --      1.4479                 1.6570                 0.4815
 IR Inten    --    128.8823               106.3755                10.1491

                     37                     38                     39
                      A                      A                      A
 Frequencies --    777.6022               806.2724               827.0511
 Red. masses --      2.0824                 2.8167                 1.8157
 Frc consts  --      0.7419                 1.0788                 0.7318
 IR Inten    --     32.4793                23.8474                 3.4993

                     40                     41                     42
                      A                      A                      A
 Frequencies --    836.5385               863.3545               868.6701
 Red. masses --      3.7519                 3.6634                 1.2533
 Frc consts  --      1.5469                 1.6088                 0.5572
 IR Inten    --      2.3472                16.8340                 0.0520

                     43                     44                     45
                      A                      A                      A
 Frequencies --    933.8635               938.2699               953.8772
 Red. masses --      1.4712                 2.3727                 1.9043
 Frc consts  --      0.7560                 1.2307                 1.0209
 IR Inten    --      0.7950                54.1541                 6.2635

                     46                     47                     48
                      A                      A                      A
 Frequencies --    979.8803              1004.9329              1006.6661
 Red. masses --      1.3490                 1.2569                 1.4064
 Frc consts  --      0.7631                 0.7479                 0.8397
 IR Inten    --      0.0458                 0.1039                24.8412

                     49                     50                     51
                      A                      A                      A
 Frequencies --   1010.6977              1016.2363              1018.0163
 Red. masses --      1.4260                 5.1111                 1.9274
 Frc consts  --      0.8583                 3.1099                 1.1769
 IR Inten    --     87.8785                 3.6128                37.4537

                     52                     53                     54
                      A                      A                      A
 Frequencies --   1053.8236              1056.2759              1066.5362
 Red. masses --      2.4038                 2.8819                 1.1542
 Frc consts  --      1.5728                 1.8944                 0.7736
 IR Inten    --      0.7445                26.3844                13.0181

                     55                     56                     57
                      A                      A                      A
 Frequencies --   1075.7454              1089.9109              1116.8296
 Red. masses --      1.9592                 3.4564                 5.0878
 Frc consts  --      1.3358                 2.4191                 3.7390
 IR Inten    --     16.6524               189.0214               358.7984

                     58                     59                     60
                      A                      A                      A
 Frequencies --   1128.1358              1162.2892              1180.4504
 Red. masses --      1.8830                 4.9327                 1.0882
 Frc consts  --      1.4120                 3.9261                 0.8934
 IR Inten    --     59.2401                39.3203                 0.1156

                     61                     62                     63
                      A                      A                      A
 Frequencies --   1200.8954              1201.2234              1223.1875
 Red. masses --      1.2208                 1.2322                 1.7040
 Frc consts  --      1.0373                 1.0476                 1.5022
 IR Inten    --     17.4772                13.8817               117.5479

                     64                     65                     66
                      A                      A                      A
 Frequencies --   1235.8663              1238.3168              1267.2298
 Red. masses --      1.6097                 2.5056                 3.8706
 Frc consts  --      1.4486                 2.2637                 3.6622
 IR Inten    --     13.7917                22.3425               183.7486

                     67                     68                     69
                      A                      A                      A
 Frequencies --   1285.1889              1290.7041              1323.5790
 Red. masses --      2.6593                 6.8061                 1.4834
 Frc consts  --      2.5879                 6.6804                 1.5311
 IR Inten    --    218.1878               334.8548                30.4263

                     70                     71                     72
                      A                      A                      A
 Frequencies --   1332.6819              1361.3722              1372.3894
 Red. masses --      1.4549                 2.4453                 1.4064
 Frc consts  --      1.5224                 2.6702                 1.5607
 IR Inten    --     16.0396                 0.0121                 0.6360

                     73                     74                     75
                      A                      A                      A
 Frequencies --   1388.5049              1401.7492              1456.7684
 Red. masses --      1.2047                 1.4448                 1.1250
 Frc consts  --      1.3684                 1.6726                 1.4066
 IR Inten    --     13.5138                 1.7642                41.5566

                     76                     77                     78
                      A                      A                      A
 Frequencies --   1471.2290              1475.0913              1478.5033
 Red. masses --      1.0946                 1.0696                 1.0530
 Frc consts  --      1.3959                 1.3712                 1.3562
 IR Inten    --     35.6931                11.4800                 4.9848

                     79                     80                     81
                      A                      A                      A
 Frequencies --   1490.8800              1498.6668              1504.4579
 Red. masses --      1.0710                 2.1182                 1.1721
 Frc consts  --      1.4026                 2.8030                 1.5631
 IR Inten    --      2.3082                 3.5953                38.9000

                     82                     83                     84
                      A                      A                      A
 Frequencies --   1516.0709              1542.5690              1642.2468
 Red. masses --      1.1025                 2.2547                 5.5361
 Frc consts  --      1.4930                 3.1610                 8.7970
 IR Inten    --      4.9857                18.7982                 1.7662

                     85                     86                     87
                      A                      A                      A
 Frequencies --   1661.9948              3059.5376              3075.3609
 Red. masses --      5.7380                 1.0598                 1.0589
 Frc consts  --      9.3384                 5.8448                 5.9006
 IR Inten    --      9.2520                15.5117                69.5363

                     88                     89                     90
                      A                      A                      A
 Frequencies --   3101.8342              3111.0578              3122.7355
 Red. masses --      1.1002                 1.0329                 1.1047
 Frc consts  --      6.2367                 5.8899                 6.3468
 IR Inten    --      2.3979                 0.7765                61.4222

                     91                     92                     93
                      A                      A                      A
 Frequencies --   3142.9532              3159.3981              3190.4821
 Red. masses --      1.0580                 1.0593                 1.0857
 Frc consts  --      6.1578                 6.2298                 6.5113
 IR Inten    --      2.3800                 5.9420                11.5043

                     94                     95                     96
                      A                      A                      A
 Frequencies --   3192.3480              3201.2870              3207.2790
 Red. masses --      1.0876                 1.0902                 1.1073
 Frc consts  --      6.5306                 6.5827                 6.7113
 IR Inten    --      9.3860                21.5625                 0.0942

                     97                     98                     99
                      A                      A                      A
 Frequencies --   3210.1608              3214.3722              3220.7090
 Red. masses --      1.0940                 1.1114                 1.0979
 Frc consts  --      6.6426                 6.7660                 6.7099
 IR Inten    --     75.0686                 0.5502                29.4115

                    100                    101                    102
                      A                      A                      A
 Frequencies --   3233.4228              3242.0667              3516.1649
 Red. masses --      1.1066                 1.1087                 1.0765
 Frc consts  --      6.8164                 6.8660                 7.8412
 IR Inten    --      0.9164                 7.3285               125.1467

 - Thermochemistry -
 -------------------
 Temperature   298.150 Kelvin.  Pressure   1.00000 Atm.
 Atom     1 has atomic number  6 and mass  12.00000

 Molecular mass:   303.05990 amu.
 Principal axes and moments of inertia in atomic units:
                           1         2         3
     Eigenvalues --  4377.219969552.13252**********
           X            0.99999   0.00252  -0.00377
           Y           -0.00256   0.99995  -0.00972
           Z            0.00374   0.00973   0.99995
 This molecule is an asymmetric top.
 Rotational symmetry number  1.
 Warning -- assumption of classical behavior for rotation
           may cause significant error
 Rotational temperatures (Kelvin)      0.01979     0.00907     0.00689
 Rotational constants (GHZ):           0.41230     0.18894     0.14355
 Zero-point vibrational energy     754440.6 (Joules/Mol)
                                  180.31562 (Kcal/Mol)
 Warning -- explicit consideration of  30 degrees of freedom as
           vibrations may cause significant error
 Vibrational temperatures:     26.56    45.51    53.35    63.66    73.48
          (Kelvin)            144.53   165.76   202.62   249.36   277.15
                              302.45   343.43   364.47   406.57   416.89
                              465.01   471.06   496.99   508.65   538.59
                              601.59   620.17   644.46   689.16   704.26
                              731.93   753.29   799.17   849.75   884.33
                              912.69  1019.70  1040.48  1061.43  1094.26
                             1110.32  1118.80  1160.05  1189.94  1203.59
                             1242.17  1249.82  1343.62  1349.96  1372.42
                             1409.83  1445.87  1448.37  1454.17  1462.14
                             1464.70  1516.22  1519.75  1534.51  1547.76
                             1568.14  1606.87  1623.14  1672.27  1698.40
                             1727.82  1728.29  1759.89  1778.14  1781.66
                             1823.26  1849.10  1857.04  1904.33  1917.43
                             1958.71  1974.56  1997.75  2016.80  2095.96
                             2116.77  2122.33  2127.24  2145.04  2156.25
                             2164.58  2181.29  2219.41  2362.83  2391.24
                             4401.99  4424.76  4462.85  4476.12  4492.92
                             4522.01  4545.67  4590.39  4593.08  4605.94
                             4614.56  4618.71  4624.76  4633.88  4652.17
                             4664.61  5058.98

 Zero-point correction=                           0.287351 (Hartree/Particle)
 Thermal correction to Energy=                    0.306110
 Thermal correction to Enthalpy=                  0.307054
 Thermal correction to Gibbs Free Energy=         0.237982
 Sum of electronic and zero-point Energies=          -1619.130689
 Sum of electronic and thermal Energies=             -1619.111931
 Sum of electronic and thermal Enthalpies=           -1619.110986
 Sum of electronic and thermal Free Energies=        -1619.180058

                     E (Thermal)             CV                S
                      KCal/Mol        Cal/Mol-Kelvin    Cal/Mol-Kelvin
 Total                  192.087             71.832            145.374
 Electronic               0.000              0.000              0.000
 Translational            0.889              2.981             43.023
 Rotational               0.889              2.981             34.618
 Vibrational            190.309             65.870             67.733
 Vibration     1          0.593              1.986              6.793
 Vibration     2          0.594              1.983              5.725
 Vibration     3          0.594              1.982              5.409
 Vibration     4          0.595              1.980              5.059
 Vibration     5          0.595              1.977              4.775
 Vibration     6          0.604              1.949              3.446
 Vibration     7          0.608              1.937              3.179
 Vibration     8          0.615              1.912              2.793
 Vibration     9          0.627              1.875              2.399
 Vibration    10          0.635              1.850              2.202
 Vibration    11          0.642              1.825              2.042
 Vibration    12          0.657              1.781              1.813
 Vibration    13          0.664              1.757              1.707
 Vibration    14          0.682              1.706              1.518
 Vibration    15          0.686              1.693              1.475
 Vibration    16          0.708              1.629              1.294
 Vibration    17          0.711              1.621              1.273
 Vibration    18          0.724              1.585              1.187
 Vibration    19          0.730              1.568              1.150
 Vibration    20          0.745              1.525              1.062
 Vibration    21          0.781              1.431              0.898
 Vibration    22          0.792              1.403              0.855
 Vibration    23          0.807              1.365              0.802
 Vibration    24          0.835              1.297              0.713
 Vibration    25          0.845              1.273              0.685
 Vibration    26          0.864              1.231              0.637
 Vibration    27          0.879              1.198              0.602
 Vibration    28          0.911              1.128              0.533
 Vibration    29          0.948              1.052              0.466
 Vibration    30          0.974              1.001              0.425

                           ! Non-Optimized Parameters !
 Normal termination of Gaussian 16 at Tue Sep 15 07:49:22 2020.

 ----------------------------------------------------------------------
 #p b3lyp/6-31G(d) scrf=(iefpcm,read,solvent=water) geom=allcheck guess
 =read
 ----------------------------------------------------------------------

 Structure from the checkpoint file:  "SM38_m0.n.13.pdb.xyz.mst.n.w.chk"
 --------------------
 SM38_m0.n.13.pdb.xyz
 --------------------
 Charge =  0 Multiplicity = 1

 SCF Done:  E(RB3LYP) =  -1619.41804293     A.U. after    5 cycles
 Normal termination of Gaussian 16 at Tue Sep 15 07:49:56 2020.

 -----------------------------
 #p B3LYP/6-31G* geom=allcheck
 -----------------------------

 Structure from the checkpoint file:  "SM38_m0.n.13.pdb.xyz.mst.n.w.chk"
 --------------------
 SM38_m0.n.13.pdb.xyz
 --------------------
 Charge =  0 Multiplicity = 1

 SCF Done:  E(RB3LYP) =  -1619.37912481     A.U. after   15 cycles
 Normal termination of Gaussian 16 at Tue Sep 15 07:50:50 2020.
 Gaussian 16:  ES64L-G16RevB.01 20-Dec-2017

 ----------------------------------------------------------------------
 #p mp2/aug-cc-pVDZ scf=(MaxCycle=2000,NoVarAcc,NoIncFock) maxdisk=180G
 B geom=allcheck
 ----------------------------------------------------------------------

 Structure from the checkpoint file:  "SM38_m0.n.13.pdb.xyz.mst.n.w.chk"
 --------------------
 SM38_m0.n.13.pdb.xyz
 --------------------
 Charge =  0 Multiplicity = 1

                         Standard orientation:
 ---------------------------------------------------------------------
 Center     Atomic      Atomic             Coordinates (Angstroms)
 Number     Number       Type             X           Y           Z
 ---------------------------------------------------------------------
      1          6           0        0.422727    3.322182   -0.462875
      2         16           0        1.809783    2.305839    0.061468
      3          7           0        1.735044    0.833749   -0.736013
      4          6           0        0.902388   -0.311808   -0.304120
      5          6           0        1.463349   -0.892820    1.034294
      6         16           0        2.422989   -2.129324    0.101774
      7          6           0        1.327020   -1.506273   -1.218021
      8          8           0        3.827726   -1.720395   -0.098227
      9          8           0        2.156397   -3.526994    0.494196
     10          6           0       -0.601621    0.007257   -0.308431
     11          6           0       -1.560842   -1.141960    0.052268
     12          6           0       -3.000518   -0.673193    0.058318
     13          6           0       -3.778556   -0.732218   -1.105539
     14          6           0       -5.095694   -0.269523   -1.110820
     15          6           0       -5.656571    0.260921    0.053002
     16          6           0       -4.891995    0.322586    1.219920
     17          6           0       -3.575454   -0.141106    1.220529
     18          8           0        3.029519    2.959929   -0.431639
     19          8           0        1.667585    2.028807    1.499499
     20          1           0        0.477122    3.456088   -1.542948
     21          1           0        0.526972    4.281299    0.046126
     22          1           0       -0.505975    2.835132   -0.176129
     23          1           0        1.735681    0.984014   -1.746275
     24          1           0        0.709536   -1.403435    1.632498
     25          1           0        2.053178   -0.211248    1.639838
     26          1           0        0.525943   -2.223332   -1.397383
     27          1           0        1.839893   -1.260282   -2.146207
     28          1           0       -0.857316    0.385867   -1.304013
     29          1           0       -0.767768    0.826537    0.398084
     30          1           0       -1.307722   -1.542066    1.038896
     31          1           0       -1.451431   -1.960218   -0.665938
     32          1           0       -3.349321   -1.148514   -2.012655
     33          1           0       -5.683681   -0.327100   -2.021339
     34          1           0       -6.681298    0.618750    0.051801
     35          1           0       -5.320968    0.727706    2.130980
     36          1           0       -2.987724   -0.094713    2.133102
 ---------------------------------------------------------------------

 SCF Done:  E(RHF) =  -1613.18341420     A.U. after   15 cycles
 E2 =    -0.2986988044D+01 EUMP2 =    -0.16161704022423D+04

 The electronic state is 1-A.
 Alpha  occ. eigenvalues --  -92.24140 -92.20084 -20.57451 -20.56679 -20.56088
 Alpha  occ. eigenvalues --  -20.55659 -15.63726 -11.35162 -11.30581 -11.30534
 Alpha  occ. eigenvalues --  -11.29264 -11.27906 -11.27235 -11.27154 -11.26267
 Alpha  occ. eigenvalues --  -11.26216 -11.26058 -11.25982 -11.25863  -9.20930
 Alpha  occ. eigenvalues --   -9.17331  -6.89472  -6.89423  -6.89310  -6.85819
 Alpha  occ. eigenvalues --   -6.85728  -6.85663  -1.47152  -1.44091  -1.34956
 Alpha  occ. eigenvalues --   -1.32756  -1.27852  -1.17994  -1.15461  -1.09741
 Alpha  occ. eigenvalues --   -1.05785  -1.03583  -1.02693  -0.99163  -0.94261
 Alpha  occ. eigenvalues --   -0.88069  -0.84969  -0.83956  -0.82021  -0.79330
 Alpha  occ. eigenvalues --   -0.74819  -0.72451  -0.70935  -0.70009  -0.69010
 Alpha  occ. eigenvalues --   -0.68050  -0.67161  -0.65870  -0.65423  -0.64197
 Alpha  occ. eigenvalues --   -0.63103  -0.62580  -0.61922  -0.61274  -0.60914
 Alpha  occ. eigenvalues --   -0.60503  -0.58984  -0.57790  -0.55901  -0.55061
 Alpha  occ. eigenvalues --   -0.52569  -0.51731  -0.51265  -0.50829  -0.50761
 Alpha  occ. eigenvalues --   -0.50116  -0.48678  -0.48537  -0.47780  -0.47174
 Alpha  occ. eigenvalues --   -0.46204  -0.43980  -0.42903  -0.35627  -0.34836
 Alpha virt. eigenvalues --    0.01467   0.02570   0.03023   0.03401   0.04097
 Alpha virt. eigenvalues --    0.04711   0.04937   0.05340   0.05833   0.06364
 Alpha virt. eigenvalues --    0.06926   0.07417   0.07550   0.08165   0.08645

 Mulliken charges:
               1
     1  C    0.157592
     2  S    2.755453
     3  N   -1.284493
     4  C    0.686124
     5  C    0.189569
     6  S    2.882444
     7  C    0.505926
     8  O   -1.246587
     9  O   -1.236216
    10  C   -0.253973
    11  C    0.901926
    12  C    1.174446
    13  C    0.558286
    14  C   -0.056866
    15  C    0.689298
    16  C   -0.026763
    17  C    0.665432
    18  O   -1.131713
    19  O   -1.225293
    20  H    0.042825
    21  H    0.014308
    22  H   -0.087616
    23  H   -0.104008
    24  H   -0.249314
    25  H   -0.249360
    26  H   -0.182002
    27  H   -0.305139
    28  H   -0.132070
    29  H   -0.116900
    30  H   -0.254764
    31  H   -0.322241
    32  H   -0.689997
    33  H   -0.466747
    34  H   -0.436857
    35  H   -0.474260
    36  H   -0.690451
 Sum of Mulliken charges =  -0.00000

 Dipole moment (field-independent basis, Debye):
    X=             -9.5605    Y=              3.0155    Z=             -3.8205  Tot=             10.7281
 Quadrupole moment (field-independent basis, Debye-Ang):
   XX=           -159.6531   YY=           -146.4083   ZZ=           -119.0612
   XY=             -1.0948   XZ=             -3.6498   YZ=              0.5826

 Normal termination of Gaussian 16 at Tue Sep 15 08:33:24 2020.
