 Gaussian 16, Revision B.01,

 ----------------------------------------------------------------------
 #p b3lyp/6-31G(d) opt freq NoSymm scf=(MaxCycle=2000,NoVarAcc,NoIncFoc
 k) scrf=(iefpcm,read,solvent=water)
 ----------------------------------------------------------------------

 -------------------
 SM38_m0.n.8.pdb.xyz
 -------------------
 Symbolic Z-matrix:
 Charge =  0 Multiplicity = 1

 SCF Done:  E(RB3LYP) =  -1619.41586936     A.U. after   13 cycles
 SCF Done:  E(RB3LYP) =  -1619.41587079     A.U. after    8 cycles
 SCF Done:  E(RB3LYP) =  -1619.41588187     A.U. after    8 cycles
 SCF Done:  E(RB3LYP) =  -1619.41587488     A.U. after    8 cycles
 SCF Done:  E(RB3LYP) =  -1619.41586848     A.U. after    7 cycles
 SCF Done:  E(RB3LYP) =  -1619.41588129     A.U. after    8 cycles
 SCF Done:  E(RB3LYP) =  -1619.41587436     A.U. after    8 cycles
 SCF Done:  E(RB3LYP) =  -1619.41588147     A.U. after    8 cycles
 SCF Done:  E(RB3LYP) =  -1619.41588187     A.U. after    7 cycles
 SCF Done:  E(RB3LYP) =  -1619.41587424     A.U. after    8 cycles
 Optimization completed.
    -- Stationary point found.
 Normal termination of Gaussian 16 at Tue Sep 22 02:01:07 2020.

 --------------------------------------------------------------------
 #P Geom=AllCheck Guess=TCheck SCRF=Check GenChk RB3LYP/6-31G(d) Freq
 --------------------------------------------------------------------

 Structure from the checkpoint file:  "SM38_m0.n.8.pdb.xyz.mst.n.w.chk"
 -------------------
 SM38_m0.n.8.pdb.xyz
 -------------------
 Charge =  0 Multiplicity = 1

 SCF Done:  E(RB3LYP) =  -1619.41587424     A.U. after    1 cycles

  Exact polarizability: 264.115  31.319 185.099  -5.500   4.626 225.036
 Approx polarizability: 282.536  29.642 213.086  -2.781   0.702 273.332

                      1                      2                      3
                      A                      A                      A
 Frequencies --     27.3635                37.2026                50.5012
 Red. masses --      4.7143                 6.4099                 4.3976
 Frc consts  --      0.0021                 0.0052                 0.0066
 IR Inten    --      1.7556                 1.5473                 3.6766

                      4                      5                      6
                      A                      A                      A
 Frequencies --     55.9282                63.5712                80.1040
 Red. masses --      7.2779                 4.8327                 5.1435
 Frc consts  --      0.0134                 0.0115                 0.0194
 IR Inten    --     15.0269                 1.2629                 4.6500

                      7                      8                      9
                      A                      A                      A
 Frequencies --    116.6890               147.1702               166.4603
 Red. masses --      6.5455                 5.8706                 4.5924
 Frc consts  --      0.0525                 0.0749                 0.0750
 IR Inten    --      6.8277                 1.3577                 1.8696

                     10                     11                     12
                      A                      A                      A
 Frequencies --    199.2325               218.8197               240.3085
 Red. masses --      4.8341                 4.1362                 1.2216
 Frc consts  --      0.1131                 0.1167                 0.0416
 IR Inten    --      3.8644                 4.3912                 0.9790

                     13                     14                     15
                      A                      A                      A
 Frequencies --    245.3984               282.7370               293.7910
 Red. masses --      2.7658                 4.4381                 3.2590
 Frc consts  --      0.0981                 0.2090                 0.1657
 IR Inten    --     19.6034                 5.7126                14.0775

                     16                     17                     18
                      A                      A                      A
 Frequencies --    298.9903               327.4994               353.9403
 Red. masses --      3.2011                 2.4138                 2.5051
 Frc consts  --      0.1686                 0.1525                 0.1849
 IR Inten    --      2.4320                 9.0387                 3.7763

                     19                     20                     21
                      A                      A                      A
 Frequencies --    361.6193               395.2639               419.3197
 Red. masses --      3.1275                 3.5780                 2.9265
 Frc consts  --      0.2410                 0.3294                 0.3032
 IR Inten    --     26.1578                68.4551                 5.1275

                     22                     23                     24
                      A                      A                      A
 Frequencies --    421.6525               430.0393               472.9476
 Red. masses --      2.4546                 4.9868                 5.5784
 Frc consts  --      0.2571                 0.5434                 0.7352
 IR Inten    --     17.4164                32.2303                16.8536

                     25                     26                     27
                      A                      A                      A
 Frequencies --    486.7547               506.2348               533.1465
 Red. masses --      3.3585                 4.3286                 3.9446
 Frc consts  --      0.4688                 0.6536                 0.6606
 IR Inten    --      8.6851                 1.1901                93.3269

                     28                     29                     30
                      A                      A                      A
 Frequencies --    564.3018               577.2082               624.4267
 Red. masses --      3.7892                 3.7485                 5.1714
 Frc consts  --      0.7109                 0.7358                 1.1880
 IR Inten    --     96.9755                29.1142                67.9845

                     31                     32                     33
                      A                      A                      A
 Frequencies --    634.2293               712.9397               724.4763
 Red. masses --      6.3811                 2.7047                 2.1124
 Frc consts  --      1.5123                 0.8100                 0.6532
 IR Inten    --      0.2673                 8.6932                70.5371

                     34                     35                     36
                      A                      A                      A
 Frequencies --    751.7606               761.5752               764.9046
 Red. masses --      2.4795                 5.8245                 3.7395
 Frc consts  --      0.8256                 1.9904                 1.2891
 IR Inten    --     49.3729                62.9769                62.3510

                     37                     38                     39
                      A                      A                      A
 Frequencies --    781.4105               809.7048               831.0243
 Red. masses --      2.1158                 4.0489                 1.6119
 Frc consts  --      0.7612                 1.5640                 0.6559
 IR Inten    --     14.1793                 4.6956                17.9429

                     40                     41                     42
                      A                      A                      A
 Frequencies --    857.4548               866.6628               889.3663
 Red. masses --      2.3855                 1.2520                 2.5369
 Frc consts  --      1.0333                 0.5540                 1.1823
 IR Inten    --    130.5285                 0.1557                18.8114

                     43                     44                     45
                      A                      A                      A
 Frequencies --    917.5365               942.6171               965.7667
 Red. masses --      1.4348                 2.1061                 2.3459
 Frc consts  --      0.7117                 1.1026                 1.2891
 IR Inten    --      3.6338                24.1235                74.0282

                     46                     47                     48
                      A                      A                      A
 Frequencies --    977.9045              1000.0895              1003.6558
 Red. masses --      1.3612                 1.9370                 1.2872
 Frc consts  --      0.7670                 1.1415                 0.7639
 IR Inten    --      1.2083                10.4859                 8.4166

                     49                     50                     51
                      A                      A                      A
 Frequencies --   1007.1336              1009.7700              1016.4701
 Red. masses --      1.4010                 1.5027                 5.9443
 Frc consts  --      0.8373                 0.9028                 3.6186
 IR Inten    --      1.2976                53.3906                 0.1790

                     52                     53                     54
                      A                      A                      A
 Frequencies --   1046.2962              1050.8338              1060.2482
 Red. masses --      1.8721                 1.6112                 1.9426
 Frc consts  --      1.2075                 1.0483                 1.2866
 IR Inten    --     60.7169                 1.7219                 9.2692

                     55                     56                     57
                      A                      A                      A
 Frequencies --   1063.5330              1086.3032              1112.4811
 Red. masses --      2.8624                 1.6492                 5.5377
 Frc consts  --      1.9076                 1.1466                 4.0380
 IR Inten    --    167.1489                12.9231               296.1278

                     58                     59                     60
                      A                      A                      A
 Frequencies --   1118.4981              1125.6062              1189.3535
 Red. masses --      2.6148                 2.7824                 1.1006
 Frc consts  --      1.9273                 2.0770                 0.9172
 IR Inten    --     44.3582                51.3157                 0.1471

                     61                     62                     63
                      A                      A                      A
 Frequencies --   1194.0835              1206.1898              1223.1201
 Red. masses --      1.3142                 1.1331                 1.4253
 Frc consts  --      1.1040                 0.9713                 1.2563
 IR Inten    --      1.7634                 1.0190                71.0880

                     64                     65                     66
                      A                      A                      A
 Frequencies --   1229.4818              1240.4431              1259.7562
 Red. masses --      2.2825                 2.1801                 2.0879
 Frc consts  --      2.0329                 1.9764                 1.9522
 IR Inten    --     11.6889                15.0785               193.0459

                     67                     68                     69
                      A                      A                      A
 Frequencies --   1274.8172              1284.7784              1325.4121
 Red. masses --      5.8902                 3.8119                 1.4849
 Frc consts  --      5.6400                 3.7072                 1.5369
 IR Inten    --    552.9144                74.5920                54.8573

                     70                     71                     72
                      A                      A                      A
 Frequencies --   1350.2913              1362.1789              1387.9730
 Red. masses --      2.5168                 1.8018                 1.2073
 Frc consts  --      2.7037                 1.9698                 1.3703
 IR Inten    --      0.1273                 0.0588                16.0968

                     73                     74                     75
                      A                      A                      A
 Frequencies --   1396.2159              1403.1524              1454.4822
 Red. masses --      1.3618                 1.4510                 1.1126
 Frc consts  --      1.5641                 1.6831                 1.3867
 IR Inten    --      8.8113                 3.9734                35.4475

                     76                     77                     78
                      A                      A                      A
 Frequencies --   1462.6635              1471.6850              1476.6704
 Red. masses --      1.1416                 1.0483                 1.0660
 Frc consts  --      1.4390                 1.3377                 1.3695
 IR Inten    --     32.1790                 9.3677                12.1702

                     79                     80                     81
                      A                      A                      A
 Frequencies --   1497.6005              1503.9054              1506.4908
 Red. masses --      1.6499                 1.2895                 1.1107
 Frc consts  --      2.1803                 1.7184                 1.4851
 IR Inten    --      7.0542                13.0435                32.6894

                     82                     83                     84
                      A                      A                      A
 Frequencies --   1512.9174              1542.0568              1640.8287
 Red. masses --      1.1056                 2.2446                 5.4514
 Frc consts  --      1.4910                 3.1448                 8.6473
 IR Inten    --      1.0480                21.5824                 1.5811

                     85                     86                     87
                      A                      A                      A
 Frequencies --   1661.1240              3055.4282              3087.4964
 Red. masses --      5.6848                 1.0637                 1.0699
 Frc consts  --      9.2420                 5.8508                 6.0090
 IR Inten    --     11.8091                38.5495                33.5656

                     88                     89                     90
                      A                      A                      A
 Frequencies --   3097.2163              3104.1198              3138.6383
 Red. masses --      1.0952                 1.0298                 1.0572
 Frc consts  --      6.1899                 5.8460                 6.1358
 IR Inten    --     44.6367                 4.0802                 0.7323

                     91                     92                     93
                      A                      A                      A
 Frequencies --   3141.2346              3148.6672              3190.7005
 Red. masses --      1.0583                 1.0970                 1.0869
 Frc consts  --      6.1529                 6.4080                 6.5196
 IR Inten    --      0.6311                14.8038                19.7885

                     94                     95                     96
                      A                      A                      A
 Frequencies --   3192.4995              3202.7202              3205.6335
 Red. masses --      1.0873                 1.1070                 1.0896
 Frc consts  --      6.5289                 6.6900                 6.5972
 IR Inten    --     11.3532                 0.0988                 9.0926

                     97                     98                     99
                      A                      A                      A
 Frequencies --   3209.4689              3211.3506              3212.9662
 Red. masses --      1.1107                 1.0939                 1.1122
 Frc consts  --      6.7406                 6.6465                 6.7648
 IR Inten    --      0.4002                72.6675                 1.0177

                    100                    101                    102
                      A                      A                      A
 Frequencies --   3223.3119              3225.9993              3512.4946
 Red. masses --      1.1077                 1.0983                 1.0754
 Frc consts  --      6.7808                 6.7346                 7.8174
 IR Inten    --     12.3624                31.4087                91.3342

 - Thermochemistry -
 -------------------
 Temperature   298.150 Kelvin.  Pressure   1.00000 Atm.
 Atom     1 has atomic number  6 and mass  12.00000

 Molecular mass:   303.05990 amu.
 Principal axes and moments of inertia in atomic units:
                           1         2         3
     Eigenvalues --  3346.951128414.26977**********
           X            0.99996   0.00787  -0.00507
           Y           -0.00792   0.99992  -0.00994
           Z            0.00499   0.00998   0.99994
 This molecule is an asymmetric top.
 Rotational symmetry number  1.
 Warning -- assumption of classical behavior for rotation
           may cause significant error
 Rotational temperatures (Kelvin)      0.02588     0.01029     0.00845
 Rotational constants (GHZ):           0.53922     0.21449     0.17602
 Zero-point vibrational energy     754284.3 (Joules/Mol)
                                  180.27828 (Kcal/Mol)
 Warning -- explicit consideration of  29 degrees of freedom as
           vibrations may cause significant error
 Vibrational temperatures:     39.37    53.53    72.66    80.47    91.46
          (Kelvin)            115.25   167.89   211.75   239.50   286.65
                              314.83   345.75   353.07   406.80   422.70
                              430.18   471.20   509.24   520.29   568.70
                              603.31   606.66   618.73   680.47   700.33
                              728.36   767.08   811.90   830.47   898.41
                              912.51  1025.76  1042.36  1081.62  1095.74
                             1100.53  1124.28  1164.98  1195.66  1233.69
                             1246.93  1279.60  1320.13  1356.22  1389.52
                             1406.99  1438.91  1444.04  1449.04  1452.83
                             1462.47  1505.39  1511.92  1525.46  1530.19
                             1562.95  1600.61  1609.27  1619.50  1711.21
                             1718.02  1735.44  1759.80  1768.95  1784.72
                             1812.51  1834.18  1848.51  1906.97  1942.77
                             1959.87  1996.98  2008.84  2018.82  2092.68
                             2104.45  2117.43  2124.60  2154.71  2163.78
                             2167.50  2176.75  2218.68  2360.79  2389.99
                             4396.08  4442.22  4456.20  4466.14  4515.80
                             4519.54  4530.23  4590.71  4593.29  4608.00
                             4612.19  4617.71  4620.42  4622.74  4637.63
                             4641.49  5053.70

 Zero-point correction=                           0.287292 (Hartree/Particle)
 Thermal correction to Energy=                    0.305962
 Thermal correction to Enthalpy=                  0.306906
 Thermal correction to Gibbs Free Energy=         0.239202
 Sum of electronic and zero-point Energies=          -1619.128583
 Sum of electronic and thermal Energies=             -1619.109913
 Sum of electronic and thermal Enthalpies=           -1619.108968
 Sum of electronic and thermal Free Energies=        -1619.176672

                     E (Thermal)             CV                S
                      KCal/Mol        Cal/Mol-Kelvin    Cal/Mol-Kelvin
 Total                  191.994             71.809            142.495
 Electronic               0.000              0.000              0.000
 Translational            0.889              2.981             43.023
 Rotational               0.889              2.981             34.023
 Vibrational            190.216             65.847             65.449
 Vibration     1          0.593              1.984              6.012
 Vibration     2          0.594              1.982              5.403
 Vibration     3          0.595              1.977              4.798
 Vibration     4          0.596              1.975              4.596
 Vibration     5          0.597              1.972              4.343
 Vibration     6          0.600              1.963              3.888
 Vibration     7          0.608              1.936              3.154
 Vibration     8          0.617              1.906              2.708
 Vibration     9          0.624              1.884              2.475
 Vibration    10          0.637              1.841              2.140
 Vibration    11          0.647              1.812              1.969
 Vibration    12          0.657              1.779              1.801
 Vibration    13          0.660              1.770              1.763
 Vibration    14          0.682              1.706              1.517
 Vibration    15          0.689              1.685              1.452
 Vibration    16          0.692              1.676              1.423
 Vibration    17          0.711              1.621              1.272
 Vibration    18          0.730              1.567              1.149
 Vibration    19          0.736              1.551              1.115
 Vibration    20          0.762              1.480              0.980
 Vibration    21          0.782              1.428              0.894
 Vibration    22          0.784              1.423              0.886
 Vibration    23          0.791              1.405              0.859
 Vibration    24          0.830              1.310              0.729
 Vibration    25          0.843              1.279              0.692
 Vibration    26          0.861              1.236              0.643
 Vibration    27          0.888              1.177              0.580
 Vibration    28          0.920              1.108              0.515
 Vibration    29          0.934              1.081              0.491

 Optimization completed.
    -- Stationary point found.
 Normal termination of Gaussian 16 at Tue Sep 22 02:15:34 2020.

 ----------------------------------------------------------------------
 #p b3lyp/6-31G(d) scrf=(iefpcm,read,solvent=water) geom=allcheck guess
 =read
 ----------------------------------------------------------------------

 Structure from the checkpoint file:  "SM38_m0.n.8.pdb.xyz.mst.n.w.chk"
 -------------------
 SM38_m0.n.8.pdb.xyz
 -------------------
 Charge =  0 Multiplicity = 1

 SCF Done:  E(RB3LYP) =  -1619.41587563     A.U. after    5 cycles
 Normal termination of Gaussian 16 at Tue Sep 22 02:16:13 2020.

 -----------------------------
 #p B3LYP/6-31G* geom=allcheck
 -----------------------------

 Structure from the checkpoint file:  "SM38_m0.n.8.pdb.xyz.mst.n.w.chk"
 -------------------
 SM38_m0.n.8.pdb.xyz
 -------------------
 Charge =  0 Multiplicity = 1

 SCF Done:  E(RB3LYP) =  -1619.38521603     A.U. after   15 cycles

 The electronic state is 1-A.
 Alpha  occ. eigenvalues --  -89.12729 -89.09424 -19.15499 -19.15347 -19.14687
 Alpha  occ. eigenvalues --  -19.14501 -14.39097 -10.28803 -10.24502 -10.23734
 Alpha  occ. eigenvalues --  -10.23193 -10.20866 -10.20698 -10.20643 -10.20215
 Alpha  occ. eigenvalues --  -10.20172 -10.20054 -10.19981 -10.19857  -8.15332
 Alpha  occ. eigenvalues --   -8.12471  -6.11844  -6.11730  -6.11613  -6.08883
 Alpha  occ. eigenvalues --   -6.08833  -6.08761  -1.12173  -1.09850  -1.00770
 Alpha  occ. eigenvalues --   -0.99393  -0.96050  -0.86941  -0.86474  -0.80321
 Alpha  occ. eigenvalues --   -0.78867  -0.75477  -0.74818  -0.73623  -0.68751
 Alpha  occ. eigenvalues --   -0.65195  -0.61793  -0.61018  -0.59421  -0.57982
 Alpha  occ. eigenvalues --   -0.55267  -0.52951  -0.52407  -0.51673  -0.49562
 Alpha  occ. eigenvalues --   -0.48742  -0.48090  -0.47191  -0.46650  -0.46169
 Alpha  occ. eigenvalues --   -0.46017  -0.45173  -0.44414  -0.43883  -0.43253
 Alpha  occ. eigenvalues --   -0.43012  -0.42494  -0.40395  -0.39360  -0.38557
 Alpha  occ. eigenvalues --   -0.37185  -0.36286  -0.35907  -0.34859  -0.34478
 Alpha  occ. eigenvalues --   -0.33418  -0.32727  -0.31469  -0.31415  -0.30993
 Alpha  occ. eigenvalues --   -0.29826  -0.29642  -0.28403  -0.26131  -0.25087
 Alpha virt. eigenvalues --   -0.01434  -0.01119   0.02326   0.02423   0.04272
 Alpha virt. eigenvalues --    0.05314   0.05826   0.07257   0.07723   0.08128
 Alpha virt. eigenvalues --    0.08938   0.09162   0.10203   0.10668   0.10913

 Mulliken charges:
               1
     1  C   -0.633736
     2  S    1.193551
     3  N   -0.708886
     4  C    0.177158
     5  C   -0.511914
     6  S    1.109983
     7  C   -0.498245
     8  O   -0.505938
     9  O   -0.526590
    10  C   -0.291235
    11  C   -0.362232
    12  C    0.194827
    13  C   -0.180308
    14  C   -0.138388
    15  C   -0.140392
    16  C   -0.133015
    17  C   -0.189912
    18  O   -0.550144
    19  O   -0.527102
    20  H    0.240524
    21  H    0.220070
    22  H    0.199132
    23  H    0.346282
    24  H    0.220293
    25  H    0.198582
    26  H    0.226556
    27  H    0.235700
    28  H    0.170002
    29  H    0.201328
    30  H    0.137731
    31  H    0.166729
    32  H    0.137155
    33  H    0.137101
    34  H    0.133196
    35  H    0.131805
    36  H    0.120334
 Sum of Mulliken charges =  -0.00000

 Dipole moment (field-independent basis, Debye):
    X=              6.6696    Y=             -0.8401    Z=             -2.6312  Tot=              7.2189
 Quadrupole moment (field-independent basis, Debye-Ang):
   XX=           -147.3038   YY=           -134.9300   ZZ=           -119.9954
   XY=              2.8881   XZ=             -2.6005   YZ=             -0.4991

 Normal termination of Gaussian 16 at Tue Sep 22 02:17:15 2020.
 Gaussian 16:  ES64L-G16RevB.01 20-Dec-2017

 ----------------------------------------------------------------------
 #p mp2/aug-cc-pVDZ scf=(MaxCycle=2000,NoVarAcc,NoIncFock) maxdisk=120G
 B geom=allcheck
 ----------------------------------------------------------------------

 Structure from the checkpoint file:  "SM38_m0.n.8.pdb.xyz.mst.n.w.chk"
 -------------------
 SM38_m0.n.8.pdb.xyz
 -------------------
 Charge =  0 Multiplicity = 1

                         Standard orientation:
 ---------------------------------------------------------------------
 Center     Atomic      Atomic             Coordinates (Angstroms)
 Number     Number       Type             X           Y           Z
 ---------------------------------------------------------------------
      1          6           0        1.942287    2.347857   -0.594169
      2         16           0        0.312297    2.088906    0.094712
      3          7           0       -0.185225    0.685224   -0.706761
      4          6           0       -1.102772   -0.232949   -0.005888
      5          6           0       -1.953740   -1.019415   -1.057467
      6         16           0       -3.473443   -0.637765   -0.121971
      7          6           0       -2.305594    0.467195    0.726150
      8          8           0       -4.506988    0.056122   -0.913420
      9          8           0       -3.887037   -1.768735    0.734439
     10          6           0       -0.368185   -1.187387    0.950236
     11          6           0        0.674224   -2.123855    0.308608
     12          6           0        2.062953   -1.554644    0.101907
     13          6           0        2.804507   -1.051664    1.181250
     14          6           0        4.104187   -0.576725    0.999250
     15          6           0        4.690039   -0.599172   -0.269531
     16          6           0        3.964061   -1.100640   -1.351763
     17          6           0        2.663271   -1.573397   -1.163170
     18          8           0        0.418683    1.758443    1.525290
     19          8           0       -0.536136    3.233878   -0.289812
     20          1           0        2.569485    1.497013   -0.333683
     21          1           0        2.325946    3.267805   -0.150749
     22          1           0        1.853758    2.458022   -1.675565
     23          1           0       -0.522439    0.959098   -1.630397
     24          1           0       -1.750627   -2.085881   -1.145061
     25          1           0       -2.003517   -0.560710   -2.045462
     26          1           0       -2.331181    0.388278    1.812369
     27          1           0       -2.467126    1.494799    0.404024
     28          1           0       -1.140191   -1.800946    1.425173
     29          1           0        0.089463   -0.589900    1.741219
     30          1           0        0.299312   -2.504305   -0.647235
     31          1           0        0.758046   -2.998982    0.963705
     32          1           0        2.361784   -1.035026    2.173084
     33          1           0        4.661317   -0.193375    1.848400
     34          1           0        5.701164   -0.231959   -0.411128
     35          1           0        4.408168   -1.124272   -2.341983
     36          1           0        2.101942   -1.963388   -2.007686
 ---------------------------------------------------------------------

 SCF Done:  E(RHF) =  -1613.19000811     A.U. after   16 cycles
