 Gaussian 16, Revision B.01,

 ----------------------------------------------------------------------
 #p b3lyp/6-31G(d) opt freq NoSymm scf=(MaxCycle=2000,NoVarAcc,NoIncFoc
 k) scrf=(iefpcm,read,solvent=water)
 ----------------------------------------------------------------------

 --------------------
 SM38_m1.a.15.pdb.xyz
 --------------------
 Symbolic Z-matrix:
 Charge = -1 Multiplicity = 1

 SCF Done:  E(RB3LYP) =  -1619.00454949     A.U. after   13 cycles
 SCF Done:  E(RB3LYP) =  -1619.00455606     A.U. after    8 cycles
 SCF Done:  E(RB3LYP) =  -1619.00455032     A.U. after    8 cycles
 SCF Done:  E(RB3LYP) =  -1619.00454178     A.U. after    8 cycles
 SCF Done:  E(RB3LYP) =  -1619.00455443     A.U. after    8 cycles
 Optimization completed.
    -- Stationary point found.
 Normal termination of Gaussian 16 at Tue Sep 22 01:52:47 2020.

 --------------------------------------------------------------------
 #P Geom=AllCheck Guess=TCheck SCRF=Check GenChk RB3LYP/6-31G(d) Freq
 --------------------------------------------------------------------

 Structure from the checkpoint file:  "SM38_m1.a.15.pdb.xyz.mst.a.w.chk"
 --------------------
 SM38_m1.a.15.pdb.xyz
 --------------------
 Charge = -1 Multiplicity = 1

 SCF Done:  E(RB3LYP) =  -1619.00455443     A.U. after    1 cycles

  Exact polarizability: 268.959  19.178 199.912   3.394  -3.928 228.564
 Approx polarizability: 295.415  27.759 227.711   1.159  -0.154 264.213

                      1                      2                      3
                      A                      A                      A
 Frequencies --     22.7126                36.1579                49.8088
 Red. masses --      3.8427                 4.4759                 6.1351
 Frc consts  --      0.0012                 0.0034                 0.0090
 IR Inten    --      0.1797                 3.1811                 0.3425

                      4                      5                      6
                      A                      A                      A
 Frequencies --     53.2747                75.3883                86.7199
 Red. masses --      5.3051                 5.8240                 7.1046
 Frc consts  --      0.0089                 0.0195                 0.0315
 IR Inten    --      3.4706                 4.9235                 8.5701

                      7                      8                      9
                      A                      A                      A
 Frequencies --    123.9281               127.1787               180.6495
 Red. masses --      5.5690                 4.6771                 6.6150
 Frc consts  --      0.0504                 0.0446                 0.1272
 IR Inten    --      3.4904                 0.5922                23.1275

                     10                     11                     12
                      A                      A                      A
 Frequencies --    193.6795               208.1141               235.3551
 Red. masses --      3.4080                 5.3652                 1.1577
 Frc consts  --      0.0753                 0.1369                 0.0378
 IR Inten    --      2.9254                 7.8238                 0.4420

                     13                     14                     15
                      A                      A                      A
 Frequencies --    262.6854               284.6604               316.3765
 Red. masses --      3.4244                 5.9329                 4.4448
 Frc consts  --      0.1392                 0.2833                 0.2621
 IR Inten    --      2.5850                 4.7624                 8.3717

                     16                     17                     18
                      A                      A                      A
 Frequencies --    328.1509               332.1152               342.2739
 Red. masses --      3.4296                 2.1776                 4.8000
 Frc consts  --      0.2176                 0.1415                 0.3313
 IR Inten    --      2.9259                 1.7261                26.1812

                     19                     20                     21
                      A                      A                      A
 Frequencies --    367.9603               372.8442               414.1171
 Red. masses --      3.7503                 2.5875                 4.1494
 Frc consts  --      0.2992                 0.2119                 0.4193
 IR Inten    --      9.1067                 5.9657                15.8348

                     22                     23                     24
                      A                      A                      A
 Frequencies --    417.6744               464.5203               476.8523
 Red. masses --      2.9795                 4.1678                 5.6405
 Frc consts  --      0.3062                 0.5299                 0.7557
 IR Inten    --      0.0271                47.0321                46.7752

                     25                     26                     27
                      A                      A                      A
 Frequencies --    497.3728               513.1479               545.2729
 Red. masses --      6.1670                 3.6714                 5.1265
 Frc consts  --      0.8989                 0.5696                 0.8980
 IR Inten    --     47.5171                19.0820                16.8667

                     28                     29                     30
                      A                      A                      A
 Frequencies --    585.2359               619.0930               634.9356
 Red. masses --      8.1786                 3.6638                 6.3465
 Frc consts  --      1.6504                 0.8274                 1.5075
 IR Inten    --     84.3141                 4.2851                 0.1921

                     31                     32                     33
                      A                      A                      A
 Frequencies --    677.4939               714.7047               719.4931
 Red. masses --      4.6134                 3.1810                 2.6166
 Frc consts  --      1.2476                 0.9573                 0.7981
 IR Inten    --     19.3294                78.9910                29.3058

                     34                     35                     36
                      A                      A                      A
 Frequencies --    729.0921               767.3690               777.6206
 Red. masses --      3.9756                 1.9281                 1.4538
 Frc consts  --      1.2451                 0.6690                 0.5179
 IR Inten    --     83.4283                84.4573                11.4211

                     37                     38                     39
                      A                      A                      A
 Frequencies --    804.6626               815.6293               834.8780
 Red. masses --      4.2414                 1.5007                 4.0810
 Frc consts  --      1.6180                 0.5882                 1.6760
 IR Inten    --      8.3475                 0.3142                22.6602

                     40                     41                     42
                      A                      A                      A
 Frequencies --    842.1678               865.3892               929.7086
 Red. masses --      3.5753                 1.2491                 1.4961
 Frc consts  --      1.4940                 0.5511                 0.7619
 IR Inten    --     63.9193                 0.0015                 5.5108

                     43                     44                     45
                      A                      A                      A
 Frequencies --    930.0291               951.6499               974.7424
 Red. masses --      2.6615                 2.5655                 1.5727
 Frc consts  --      1.3564                 1.3689                 0.8804
 IR Inten    --     31.5200                20.2028                69.5545

                     46                     47                     48
                      A                      A                      A
 Frequencies --    975.9043               985.1150              1001.8538
 Red. masses --      1.3525                 1.4305                 1.2508
 Frc consts  --      0.7589                 0.8179                 0.7397
 IR Inten    --      0.1788                18.4889                 0.4564

                     49                     50                     51
                      A                      A                      A
 Frequencies --   1015.3077              1027.3940              1041.2191
 Red. masses --      6.2622                 1.9520                 1.1542
 Frc consts  --      3.8034                 1.2140                 0.7373
 IR Inten    --      0.2165                36.3846                 5.8884

                     52                     53                     54
                      A                      A                      A
 Frequencies --   1050.5901              1055.9110              1067.7324
 Red. masses --      3.2525                 2.2369                 1.8087
 Frc consts  --      2.1151                 1.4694                 1.2149
 IR Inten    --     56.0707                 5.3246                56.3684

                     55                     56                     57
                      A                      A                      A
 Frequencies --   1071.5469              1085.9980              1120.5145
 Red. masses --      4.2494                 7.4544                 1.5843
 Frc consts  --      2.8748                 5.1799                 1.1720
 IR Inten    --    326.0094               526.9937                 1.6595

                     58                     59                     60
                      A                      A                      A
 Frequencies --   1165.1899              1185.0842              1186.3877
 Red. masses --      8.4563                10.3328                 1.1514
 Frc consts  --      6.7643                 8.5500                 0.9549
 IR Inten    --    158.5935               615.8622                 2.7781

                     61                     62                     63
                      A                      A                      A
 Frequencies --   1186.9714              1207.1710              1228.4760
 Red. masses --      1.2120                 1.1497                 1.6185
 Frc consts  --      1.0060                 0.9872                 1.4391
 IR Inten    --      0.2679                 0.2433                98.8958

                     64                     65                     66
                      A                      A                      A
 Frequencies --   1229.9025              1233.3062              1246.5065
 Red. masses --      2.0629                 2.6858                 1.8627
 Frc consts  --      1.8385                 2.4069                 1.7052
 IR Inten    --    146.5845                96.5741               102.0897

                     67                     68                     69
                      A                      A                      A
 Frequencies --   1257.2783              1327.2879              1333.5512
 Red. masses --      3.4495                 1.3905                 1.3799
 Frc consts  --      3.2127                 1.4432                 1.4459
 IR Inten    --    193.1584                22.0629                 1.9471

                     70                     71                     72
                      A                      A                      A
 Frequencies --   1358.7740              1374.3558              1374.6030
 Red. masses --      2.9800                 1.2413                 1.2116
 Frc consts  --      3.2416                 1.3815                 1.3488
 IR Inten    --      0.4038                 2.5232                10.6255

                     73                     74                     75
                      A                      A                      A
 Frequencies --   1404.8324              1448.8049              1461.5951
 Red. masses --      1.4593                 1.0949                 1.0989
 Frc consts  --      1.6969                 1.3541                 1.3831
 IR Inten    --      2.5594                41.6059                 4.3606

                     76                     77                     78
                      A                      A                      A
 Frequencies --   1478.7076              1482.4507              1496.5582
 Red. masses --      1.0511                 1.0520                 1.0863
 Frc consts  --      1.3541                 1.3622                 1.4335
 IR Inten    --      4.0649                 4.8458                 1.7600

                     79                     80                     81
                      A                      A                      A
 Frequencies --   1498.3995              1518.2288              1542.7825
 Red. masses --      2.1400                 1.0990                 2.1996
 Frc consts  --      2.8309                 1.4925                 3.0846
 IR Inten    --      3.9779                 5.2204                19.3245

                     82                     83                     84
                      A                      A                      A
 Frequencies --   1638.2648              1658.7700              3049.0334
 Red. masses --      5.4140                 5.6107                 1.0593
 Frc consts  --      8.5613                 9.0958                 5.8020
 IR Inten    --      1.7047                11.9313                24.3295

                     85                     86                     87
                      A                      A                      A
 Frequencies --   3065.9702              3076.6780              3087.0360
 Red. masses --      1.0591                 1.0306                 1.1031
 Frc consts  --      5.8656                 5.7479                 6.1934
 IR Inten    --     63.5273                 9.5258                 9.6047

                     88                     89                     90
                      A                      A                      A
 Frequencies --   3111.1097              3125.1519              3131.2496
 Red. masses --      1.1047                 1.0584                 1.0588
 Frc consts  --      6.2996                 6.0902                 6.1165
 IR Inten    --     65.6650                11.2547                 5.5852

                     91                     92                     93
                      A                      A                      A
 Frequencies --   3169.3609              3176.2097              3176.4928
 Red. masses --      1.1062                 1.0863                 1.1065
 Frc consts  --      6.5471                 6.4570                 6.5781
 IR Inten    --     16.8311                18.2999                12.6702

                     94                     95                     96
                      A                      A                      A
 Frequencies --   3176.9678              3189.3578              3197.0853
 Red. masses --      1.0878                 1.0894                 1.0937
 Frc consts  --      6.4687                 6.5290                 6.5868
 IR Inten    --     14.1597                11.7998                77.1113

                     97                     98                     99
                      A                      A                      A
 Frequencies --   3203.8159              3204.0582              3209.7752
 Red. masses --      1.1098                 1.1089                 1.0977
 Frc consts  --      6.7119                 6.7071                 6.6629
 IR Inten    --      1.1668                 1.4775                35.0636

 - Thermochemistry -
 -------------------
 Temperature   298.150 Kelvin.  Pressure   1.00000 Atm.
 Atom     1 has atomic number  6 and mass  12.00000

 Molecular mass:   302.05208 amu.
 Principal axes and moments of inertia in atomic units:
                           1         2         3
     Eigenvalues --  3623.92744********************
           X            0.99994  -0.00416   0.00999
           Y            0.00442   0.99965  -0.02603
           Z           -0.00987   0.02607   0.99961
 This molecule is an asymmetric top.
 Rotational symmetry number  1.
 Warning -- assumption of classical behavior for rotation
           may cause significant error
 Rotational temperatures (Kelvin)      0.02390     0.00801     0.00665
 Rotational constants (GHZ):           0.49801     0.16691     0.13850
 Zero-point vibrational energy     717015.1 (Joules/Mol)
                                  171.37073 (Kcal/Mol)
 Warning -- explicit consideration of  29 degrees of freedom as
           vibrations may cause significant error
 Vibrational temperatures:     32.68    52.02    71.66    76.65   108.47
          (Kelvin)            124.77   178.30   182.98   259.91   278.66
                              299.43   338.62   377.95   409.56   455.20
                              472.14   477.84   492.46   529.41   536.44
                              595.82   600.94   668.34   686.08   715.61
                              738.31   784.53   842.02   890.74   913.53
                              974.76  1028.30  1035.19  1049.00  1104.07
                             1118.82  1157.73  1173.51  1201.20  1211.69
                             1245.10  1337.64  1338.10  1369.21  1402.44
                             1404.11  1417.36  1441.44  1460.80  1478.19
                             1498.08  1511.56  1519.22  1536.23  1541.72
                             1562.51  1612.17  1676.45  1705.07  1706.95
                             1707.79  1736.85  1767.50  1769.56  1774.45
                             1793.44  1808.94  1909.67  1918.68  1954.97
                             1977.39  1977.75  2021.24  2084.51  2102.91
                             2127.53  2132.92  2153.21  2155.86  2184.39
                             2219.72  2357.10  2386.60  4386.88  4411.25
                             4426.65  4441.56  4476.19  4496.40  4505.17
                             4560.00  4569.86  4570.26  4570.95  4588.77
                             4599.89  4609.58  4609.93  4618.15

 Zero-point correction=                           0.273097 (Hartree/Particle)
 Thermal correction to Energy=                    0.291564
 Thermal correction to Enthalpy=                  0.292508
 Thermal correction to Gibbs Free Energy=         0.224789
 Sum of electronic and zero-point Energies=          -1618.731458
 Sum of electronic and thermal Energies=             -1618.712991
 Sum of electronic and thermal Enthalpies=           -1618.712047
 Sum of electronic and thermal Free Energies=        -1618.779766

                     E (Thermal)             CV                S
                      KCal/Mol        Cal/Mol-Kelvin    Cal/Mol-Kelvin
 Total                  182.959             70.940            142.526
 Electronic               0.000              0.000              0.000
 Translational            0.889              2.981             43.013
 Rotational               0.889              2.981             34.589
 Vibrational            181.181             64.978             64.924
 Vibration     1          0.593              1.985              6.382
 Vibration     2          0.594              1.982              5.459
 Vibration     3          0.595              1.978              4.825
 Vibration     4          0.596              1.976              4.692
 Vibration     5          0.599              1.965              4.007
 Vibration     6          0.601              1.958              3.733
 Vibration     7          0.610              1.929              3.038
 Vibration     8          0.611              1.926              2.988
 Vibration     9          0.630              1.866              2.322
 Vibration    10          0.635              1.849              2.192
 Vibration    11          0.641              1.828              2.060
 Vibration    12          0.655              1.787              1.838
 Vibration    13          0.670              1.741              1.644
 Vibration    14          0.683              1.702              1.506
 Vibration    15          0.703              1.642              1.329
 Vibration    16          0.711              1.619              1.269
 Vibration    17          0.714              1.611              1.250
 Vibration    18          0.721              1.591              1.202
 Vibration    19          0.741              1.538              1.088
 Vibration    20          0.744              1.528              1.068
 Vibration    21          0.778              1.440              0.912
 Vibration    22          0.781              1.432              0.900
 Vibration    23          0.822              1.329              0.753
 Vibration    24          0.833              1.301              0.719
 Vibration    25          0.853              1.256              0.665
 Vibration    26          0.868              1.221              0.626
 Vibration    27          0.900              1.150              0.554
 Vibration    28          0.942              1.063              0.476
 Vibration    29          0.979              0.992              0.418

 Optimization completed.
    -- Stationary point found.
 Normal termination of Gaussian 16 at Tue Sep 22 02:05:25 2020.

 ----------------------------------------------------------------------
 #p b3lyp/6-31G(d) scrf=(iefpcm,read,solvent=water) geom=allcheck guess
 =read
 ----------------------------------------------------------------------

 Structure from the checkpoint file:  "SM38_m1.a.15.pdb.xyz.mst.a.w.chk"
 --------------------
 SM38_m1.a.15.pdb.xyz
 --------------------
 Charge = -1 Multiplicity = 1

 SCF Done:  E(RB3LYP) =  -1619.00455377     A.U. after    5 cycles
 Normal termination of Gaussian 16 at Tue Sep 22 02:05:58 2020.

 -----------------------------
 #p B3LYP/6-31G* geom=allcheck
 -----------------------------

 Structure from the checkpoint file:  "SM38_m1.a.15.pdb.xyz.mst.a.w.chk"
 --------------------
 SM38_m1.a.15.pdb.xyz
 --------------------
 Charge = -1 Multiplicity = 1

 SCF Done:  E(RB3LYP) =  -1618.83393059     A.U. after   15 cycles

 The electronic state is 1-A.
 Alpha  occ. eigenvalues --  -88.95704 -88.92703 -19.01388 -19.00950 -18.95582
 Alpha  occ. eigenvalues --  -18.94882 -14.13500 -10.12566 -10.11413 -10.11384
 Alpha  occ. eigenvalues --  -10.11289 -10.11273 -10.10793 -10.10748 -10.09485
 Alpha  occ. eigenvalues --  -10.08836 -10.08794 -10.07513 -10.07077  -7.98766
 Alpha  occ. eigenvalues --   -7.95060  -5.95207  -5.95123  -5.95022  -5.91562
 Alpha  occ. eigenvalues --   -5.91467  -5.91418  -0.96182  -0.91220  -0.85773
 Alpha  occ. eigenvalues --   -0.79821  -0.77409  -0.75673  -0.69460  -0.68244
 Alpha  occ. eigenvalues --   -0.66414  -0.63240  -0.60524  -0.58653  -0.55811
 Alpha  occ. eigenvalues --   -0.52518  -0.50338  -0.47866  -0.44653  -0.42985
 Alpha  occ. eigenvalues --   -0.41052  -0.38165  -0.37972  -0.36965  -0.35890
 Alpha  occ. eigenvalues --   -0.35683  -0.34204  -0.33256  -0.32599  -0.32282
 Alpha  occ. eigenvalues --   -0.31229  -0.31069  -0.30248  -0.29495  -0.29160
 Alpha  occ. eigenvalues --   -0.28132  -0.27402  -0.26511  -0.25931  -0.25668
 Alpha  occ. eigenvalues --   -0.24839  -0.22502  -0.21975  -0.19809  -0.18192
 Alpha  occ. eigenvalues --   -0.17080  -0.16440  -0.16211  -0.16026  -0.15840
 Alpha  occ. eigenvalues --   -0.14123  -0.12151  -0.11540  -0.08337  -0.06797
 Alpha virt. eigenvalues --    0.07773   0.08072   0.15886   0.17178   0.17579
 Alpha virt. eigenvalues --    0.19186   0.19573   0.19781   0.20424   0.22552
 Alpha virt. eigenvalues --    0.22950   0.23462   0.23568   0.24677   0.25212

 Mulliken charges:
               1
     1  C   -0.611772
     2  S    1.096410
     3  N   -0.643096
     4  C    0.216347
     5  C   -0.494169
     6  S    1.104766
     7  C   -0.516169
     8  O   -0.535621
     9  O   -0.577355
    10  C   -0.254462
    11  C   -0.370133
    12  C    0.176727
    13  C   -0.176471
    14  C   -0.129259
    15  C   -0.134357
    16  C   -0.129338
    17  C   -0.174707
    18  O   -0.635275
    19  O   -0.596498
    20  H    0.140220
    21  H    0.163679
    22  H    0.162800
    23  H    0.159444
    24  H    0.235597
    25  H    0.161066
    26  H    0.213832
    27  H    0.134316
    28  H    0.146398
    29  H    0.152459
    30  H    0.148985
    31  H    0.117229
    32  H    0.109721
    33  H    0.106202
    34  H    0.111256
    35  H    0.121230
 Sum of Mulliken charges =  -1.00000

 Dipole moment (field-independent basis, Debye):
    X=            -10.8521    Y=             -0.0781    Z=              3.2466  Tot=             11.3276
 Quadrupole moment (field-independent basis, Debye-Ang):
   XX=           -179.9766   YY=           -170.5837   ZZ=           -121.9165
   XY=              7.7247   XZ=             12.3859   YZ=            -10.2937

 Normal termination of Gaussian 16 at Tue Sep 22 02:06:49 2020.
 Gaussian 16:  ES64L-G16RevB.01 20-Dec-2017

 ----------------------------------------------------------------------
 #p mp2/aug-cc-pVDZ scf=(MaxCycle=2000,NoVarAcc,NoIncFock) maxdisk=120G
 B geom=allcheck
 ----------------------------------------------------------------------

 Structure from the checkpoint file:  "SM38_m1.a.15.pdb.xyz.mst.a.w.chk"
 --------------------
 SM38_m1.a.15.pdb.xyz
 --------------------
 Charge = -1 Multiplicity = 1

                         Standard orientation:
 ---------------------------------------------------------------------
 Center     Atomic      Atomic             Coordinates (Angstroms)
 Number     Number       Type             X           Y           Z
 ---------------------------------------------------------------------
      1          6           0        3.336159   -2.117498    1.521038
      2         16           0        2.956834   -1.555734   -0.164067
      3          7           0        1.387565   -1.385041   -0.299742
      4          6           0        0.719490   -0.104600   -0.119323
      5          6           0        1.042978    0.978489   -1.231810
      6         16           0        1.295381    2.256446    0.040529
      7          6           0        1.134938    0.795979    1.120030
      8          8           0        2.647426    2.861135    0.039142
      9          8           0        0.143985    3.184141    0.161080
     10          6           0       -0.786320   -0.475963   -0.081442
     11          6           0       -1.841348    0.642999    0.034056
     12          6           0       -3.244218    0.068093    0.026801
     13          6           0       -3.888011   -0.277728    1.223962
     14          6           0       -5.168438   -0.836739    1.216602
     15          6           0       -5.829473   -1.060274    0.005938
     16          6           0       -5.200324   -0.719166   -1.194548
     17          6           0       -3.920336   -0.160205   -1.181114
     18          8           0        3.755150   -0.297406   -0.335556
     19          8           0        3.387545   -2.696475   -1.024124
     20          1           0        3.033289   -1.356459    2.243584
     21          1           0        4.412236   -2.292722    1.597811
     22          1           0        2.791141   -3.044567    1.710315
     23          1           0        0.252447    1.221890   -1.944046
     24          1           0        1.987649    0.783006   -1.737362
     25          1           0        0.397035    0.920226    1.914330
     26          1           0        2.113271    0.563473    1.537725
     27          1           0       -0.916279   -1.171099    0.757053
     28          1           0       -0.985858   -1.052286   -0.992987
     29          1           0       -1.738878    1.350338   -0.795831
     30          1           0       -1.691603    1.216799    0.954878
     31          1           0       -3.382073   -0.103325    2.171166
     32          1           0       -5.650427   -1.093775    2.156295
     33          1           0       -6.826539   -1.492242   -0.001932
     34          1           0       -5.707426   -0.883784   -2.141736
     35          1           0       -3.439793    0.106927   -2.119934
 ---------------------------------------------------------------------

 SCF Done:  E(RHF) =  -1612.64143021     A.U. after   16 cycles
