 Gaussian 16, Revision B.01,

 ----------------------------------------------------------------------
 #p b3lyp/6-31G(d) opt freq NoSymm scf=(MaxCycle=2000,NoVarAcc,NoIncFoc
 k) scrf=(iefpcm,read,solvent=water)
 ----------------------------------------------------------------------

 --------------------
 SM38_m0.n.12.pdb.xyz
 --------------------
 Symbolic Z-matrix:
 Charge =  0 Multiplicity = 1

 SCF Done:  E(RB3LYP) =  -1619.41588524     A.U. after   13 cycles
 SCF Done:  E(RB3LYP) =  -1619.41586959     A.U. after   10 cycles
 SCF Done:  E(RB3LYP) =  -1619.41541398     A.U. after   11 cycles
 SCF Done:  E(RB3LYP) =  -1619.41586690     A.U. after   10 cycles
 SCF Done:  E(RB3LYP) =  -1619.41588458     A.U. after    9 cycles
 SCF Done:  E(RB3LYP) =  -1619.41588538     A.U. after    8 cycles
 SCF Done:  E(RB3LYP) =  -1619.41577709     A.U. after   11 cycles
 SCF Done:  E(RB3LYP) =  -1619.41585171     A.U. after   13 cycles
 SCF Done:  E(RB3LYP) =  -1619.41587726     A.U. after   10 cycles
 SCF Done:  E(RB3LYP) =  -1619.41589245     A.U. after    9 cycles
 SCF Done:  E(RB3LYP) =  -1619.41597981     A.U. after    8 cycles
 SCF Done:  E(RB3LYP) =  -1619.41598214     A.U. after    8 cycles
 SCF Done:  E(RB3LYP) =  -1619.41597718     A.U. after    8 cycles
 SCF Done:  E(RB3LYP) =  -1619.41597827     A.U. after    7 cycles
 SCF Done:  E(RB3LYP) =  -1619.41598189     A.U. after    8 cycles
 SCF Done:  E(RB3LYP) =  -1619.41597805     A.U. after    8 cycles
 Optimization completed on the basis of negligible forces.
    -- Stationary point found.
 Normal termination of Gaussian 16 at Mon Sep 21 08:06:48 2020.

 --------------------------------------------------------------------
 #P Geom=AllCheck Guess=TCheck SCRF=Check GenChk RB3LYP/6-31G(d) Freq
 --------------------------------------------------------------------

 Structure from the checkpoint file:  "SM38_m0.n.12.pdb.xyz.mst.n.w.chk"
 --------------------
 SM38_m0.n.12.pdb.xyz
 --------------------
 Charge =  0 Multiplicity = 1

 SCF Done:  E(RB3LYP) =  -1619.41597805     A.U. after    1 cycles

  Exact polarizability: 262.259  30.922 189.244   9.184 -12.007 225.596
 Approx polarizability: 286.188  30.146 214.043   4.730 -12.731 271.140

                      1                      2                      3
                      A                      A                      A
 Frequencies --     21.5976                26.5161                47.7676
 Red. masses --      4.8428                 5.2603                 6.6330
 Frc consts  --      0.0013                 0.0022                 0.0089
 IR Inten    --      3.9062                 9.1430                 5.5093

                      4                      5                      6
                      A                      A                      A
 Frequencies --     59.1854                73.2303                89.4852
 Red. masses --      5.9606                 4.2854                 6.2221
 Frc consts  --      0.0123                 0.0135                 0.0294
 IR Inten    --      2.7961                 3.7121                 0.7557

                      7                      8                      9
                      A                      A                      A
 Frequencies --    134.2066               153.0328               166.7480
 Red. masses --      6.2126                 6.6516                 4.7218
 Frc consts  --      0.0659                 0.0918                 0.0774
 IR Inten    --      6.8147                 3.2436                 2.6278

                     10                     11                     12
                      A                      A                      A
 Frequencies --    205.5103               207.4538               225.9682
 Red. masses --      5.4918                 1.1012                 5.0565
 Frc consts  --      0.1367                 0.0279                 0.1521
 IR Inten    --      3.3531                 1.3322                 4.6070

                     13                     14                     15
                      A                      A                      A
 Frequencies --    249.8985               280.6106               297.0447
 Red. masses --      3.4281                 4.0937                 3.6309
 Frc consts  --      0.1261                 0.1899                 0.1888
 IR Inten    --      4.0967                16.1841                 0.1369

                     16                     17                     18
                      A                      A                      A
 Frequencies --    311.8877               333.6964               357.2772
 Red. masses --      3.5401                 2.8937                 1.9611
 Frc consts  --      0.2029                 0.1898                 0.1475
 IR Inten    --      6.1450                 4.5281                 0.7248

                     19                     20                     21
                      A                      A                      A
 Frequencies --    386.7051               407.0983               422.2907
 Red. masses --      3.0266                 4.0733                 2.9955
 Frc consts  --      0.2667                 0.3977                 0.3147
 IR Inten    --     19.6245                24.1162                 1.1870

                     22                     23                     24
                      A                      A                      A
 Frequencies --    427.7491               456.0792               479.2011
 Red. masses --      3.8603                 3.7699                 3.8830
 Frc consts  --      0.4161                 0.4620                 0.5254
 IR Inten    --     58.9887                41.4374                53.3844

                     25                     26                     27
                      A                      A                      A
 Frequencies --    481.3463               505.4818               541.2158
 Red. masses --      5.4278                 4.3997                 4.5181
 Frc consts  --      0.7409                 0.6623                 0.7797
 IR Inten    --     13.1894                 3.6381                41.7218

                     28                     29                     30
                      A                      A                      A
 Frequencies --    586.9887               600.2215               633.9680
 Red. masses --      2.6209                 5.9680                 6.1263
 Frc consts  --      0.5321                 1.2668                 1.4507
 IR Inten    --     25.8571                52.6189                 9.0794

                     31                     32                     33
                      A                      A                      A
 Frequencies --    639.4724               715.3561               721.0108
 Red. masses --      3.3090                 2.7919                 2.1145
 Frc consts  --      0.7973                 0.8418                 0.6476
 IR Inten    --    122.3966                37.6174                26.9452

                     34                     35                     36
                      A                      A                      A
 Frequencies --    756.0207               765.7627               768.7653
 Red. masses --      2.8072                 2.6783                 5.6800
 Frc consts  --      0.9454                 0.9253                 1.9778
 IR Inten    --     34.8637                84.9671                82.5309

                     37                     38                     39
                      A                      A                      A
 Frequencies --    775.8833               800.8123               820.4820
 Red. masses --      2.3301                 2.7201                 2.1831
 Frc consts  --      0.8265                 1.0278                 0.8659
 IR Inten    --     44.7488                19.2697                62.0713

                     40                     41                     42
                      A                      A                      A
 Frequencies --    846.4789               869.7357               895.6335
 Red. masses --      1.7783                 1.2483                 2.4725
 Frc consts  --      0.7507                 0.5563                 1.1685
 IR Inten    --     29.9015                 0.1797                12.0068

                     43                     44                     45
                      A                      A                      A
 Frequencies --    914.0763               947.2508               952.7540
 Red. masses --      1.6826                 1.7753                 2.3889
 Frc consts  --      0.8283                 0.9385                 1.2776
 IR Inten    --     20.3356                 6.3185                53.6757

                     46                     47                     48
                      A                      A                      A
 Frequencies --    980.8879              1001.2732              1002.8610
 Red. masses --      1.3523                 1.9624                 1.3973
 Frc consts  --      0.7666                 1.1592                 0.8280
 IR Inten    --      0.3911                 5.2381                41.3835

                     49                     50                     51
                      A                      A                      A
 Frequencies --   1006.2871              1016.2123              1016.8758
 Red. masses --      1.3293                 3.6937                 1.6894
 Frc consts  --      0.7931                 2.2474                 1.0293
 IR Inten    --      3.6593                10.2661                38.4635

                     52                     53                     54
                      A                      A                      A
 Frequencies --   1041.2346              1050.8346              1057.3360
 Red. masses --      1.8617                 1.3314                 2.1240
 Frc consts  --      1.1892                 0.8662                 1.3990
 IR Inten    --     12.4151                30.5630                 3.5239

                     55                     56                     57
                      A                      A                      A
 Frequencies --   1071.1291              1078.2798              1114.0150
 Red. masses --      2.6325                 2.1899                 3.8941
 Frc consts  --      1.7795                 1.5002                 2.8473
 IR Inten    --    230.6547                58.8995               187.1941

                     58                     59                     60
                      A                      A                      A
 Frequencies --   1122.7825              1138.0706              1183.5993
 Red. masses --      2.0794                 3.5494                 1.0897
 Frc consts  --      1.5444                 2.7086                 0.8994
 IR Inten    --     42.8178                81.6414                 0.1589

                     61                     62                     63
                      A                      A                      A
 Frequencies --   1193.9178              1206.6623              1225.0910
 Red. masses --      1.3470                 1.1466                 1.3959
 Frc consts  --      1.1313                 0.9837                 1.2344
 IR Inten    --     10.2070                 0.4766                41.8569

                     64                     65                     66
                      A                      A                      A
 Frequencies --   1232.4939              1235.8492              1259.1074
 Red. masses --      2.0452                 2.2954                 9.9088
 Frc consts  --      1.8305                 2.0656                 9.2554
 IR Inten    --     56.8040                35.2104               588.4206

                     67                     68                     69
                      A                      A                      A
 Frequencies --   1263.8745              1277.7511              1311.8131
 Red. masses --      1.8235                 5.6306                 1.5355
 Frc consts  --      1.7162                 5.4162                 1.5569
 IR Inten    --     82.8549               154.9476                68.9701

                     70                     71                     72
                      A                      A                      A
 Frequencies --   1352.4315              1363.7371              1390.2738
 Red. masses --      2.8523                 1.6445                 1.2508
 Frc consts  --      3.0738                 1.8020                 1.4244
 IR Inten    --      0.0908                 0.4054                 8.1332

                     73                     74                     75
                      A                      A                      A
 Frequencies --   1392.0445              1399.3742              1455.5163
 Red. masses --      1.3295                 1.3576                 1.1000
 Frc consts  --      1.5179                 1.5664                 1.3731
 IR Inten    --     20.1408                 2.0679                32.8764

                     76                     77                     78
                      A                      A                      A
 Frequencies --   1462.9471              1469.8927              1475.5548
 Red. masses --      1.1084                 1.1030                 1.0478
 Frc consts  --      1.3977                 1.4041                 1.3441
 IR Inten    --     21.5053                 1.9939                14.2794

                     79                     80                     81
                      A                      A                      A
 Frequencies --   1486.9414              1497.7475              1499.8426
 Red. masses --      1.0898                 2.1057                 1.1282
 Frc consts  --      1.4197                 2.7831                 1.4953
 IR Inten    --      9.2173                 4.2930                25.2306

                     82                     83                     84
                      A                      A                      A
 Frequencies --   1511.9012              1542.4739              1640.1742
 Red. masses --      1.0964                 2.2355                 5.4758
 Frc consts  --      1.4767                 3.1337                 8.6791
 IR Inten    --     15.9702                15.5159                 1.4463

                     85                     86                     87
                      A                      A                      A
 Frequencies --   1660.5087              3061.8167              3075.8167
 Red. masses --      5.6526                 1.0630                 1.0627
 Frc consts  --      9.1830                 5.8712                 5.9236
 IR Inten    --      7.6022                30.6650                43.5414

                     88                     89                     90
                      A                      A                      A
 Frequencies --   3101.8458              3109.6292              3128.4353
 Red. masses --      1.1011                 1.0297                 1.1010
 Frc consts  --      6.2419                 5.8665                 6.3490
 IR Inten    --     33.7778                 0.1215                22.4732

                     91                     92                     93
                      A                      A                      A
 Frequencies --   3138.0654              3155.5382              3192.7062
 Red. masses --      1.0578                 1.0576                 1.0864
 Frc consts  --      6.1373                 6.2048                 6.5246
 IR Inten    --      1.6794                 3.8057                15.4363

                     94                     95                     96
                      A                      A                      A
 Frequencies --   3195.3355              3205.5602              3208.2280
 Red. masses --      1.0871                 1.0901                 1.1068
 Frc consts  --      6.5397                 6.5999                 6.7122
 IR Inten    --      6.8055                15.5928                 0.4700

                     97                     98                     99
                      A                      A                      A
 Frequencies --   3211.8605              3213.3533              3224.0947
 Red. masses --      1.0944                 1.1106                 1.0977
 Frc consts  --      6.6517                 6.7565                 6.7228
 IR Inten    --     68.4373                 4.3390                30.6831

                    100                    101                    102
                      A                      A                      A
 Frequencies --   3225.8766              3230.6855              3493.1490
 Red. masses --      1.1085                 1.1116                 1.0741
 Frc consts  --      6.7966                 6.8359                 7.7218
 IR Inten    --      0.0700                 6.5977               172.9684

 - Thermochemistry -
 -------------------
 Temperature   298.150 Kelvin.  Pressure   1.00000 Atm.
 Atom     1 has atomic number  6 and mass  12.00000

 Molecular mass:   303.05990 amu.
 Principal axes and moments of inertia in atomic units:
                           1         2         3
     Eigenvalues --  3808.476327836.442109904.72074
           X            0.99982  -0.00082   0.01876
           Y           -0.00031   0.99820   0.05996
           Z           -0.01878  -0.05995   0.99802
 This molecule is an asymmetric top.
 Rotational symmetry number  1.
 Warning -- assumption of classical behavior for rotation
           may cause significant error
 Rotational temperatures (Kelvin)      0.02274     0.01105     0.00874
 Rotational constants (GHZ):           0.47387     0.23030     0.18221
 Zero-point vibrational energy     754966.6 (Joules/Mol)
                                  180.44134 (Kcal/Mol)
 Warning -- explicit consideration of  29 degrees of freedom as
           vibrations may cause significant error
 Vibrational temperatures:     31.07    38.15    68.73    85.15   105.36
          (Kelvin)            128.75   193.09   220.18   239.91   295.68
                              298.48   325.12   359.55   403.74   427.38
                              448.74   480.11   514.04   556.38   585.72
                              607.58   615.44   656.20   689.46   692.55
                              727.28   778.69   844.55   863.58   912.14
                              920.06  1029.24  1037.37  1087.75  1101.76
                             1106.08  1116.32  1152.19  1180.49  1217.89
                             1251.36  1288.62  1315.15  1362.88  1370.80
                             1411.28  1440.61  1442.89  1447.82  1462.10
                             1463.06  1498.10  1511.92  1521.27  1541.12
                             1551.40  1602.82  1615.43  1637.43  1702.94
                             1717.78  1736.12  1762.63  1773.28  1778.11
                             1811.57  1818.43  1838.40  1887.41  1945.85
                             1962.11  2000.29  2002.84  2013.39  2094.16
                             2104.85  2114.85  2122.99  2139.38  2154.92
                             2157.94  2175.29  2219.28  2359.84  2389.10
                             4405.27  4425.41  4462.86  4474.06  4501.12
                             4514.98  4540.12  4593.59  4597.38  4612.09
                             4615.92  4621.15  4623.30  4638.75  4641.32
                             4648.24  5025.86

 Zero-point correction=                           0.287552 (Hartree/Particle)
 Thermal correction to Energy=                    0.306068
 Thermal correction to Enthalpy=                  0.307012
 Thermal correction to Gibbs Free Energy=         0.239331
 Sum of electronic and zero-point Energies=          -1619.128426
 Sum of electronic and thermal Energies=             -1619.109910
 Sum of electronic and thermal Enthalpies=           -1619.108966
 Sum of electronic and thermal Free Energies=        -1619.176647

                     E (Thermal)             CV                S
                      KCal/Mol        Cal/Mol-Kelvin    Cal/Mol-Kelvin
 Total                  192.061             71.502            142.448
 Electronic               0.000              0.000              0.000
 Translational            0.889              2.981             43.023
 Rotational               0.889              2.981             34.046
 Vibrational            190.283             65.540             65.379
 Vibration     1          0.593              1.985              6.482
 Vibration     2          0.593              1.984              6.074
 Vibration     3          0.595              1.978              4.908
 Vibration     4          0.597              1.974              4.484
 Vibration     5          0.599              1.967              4.065
 Vibration     6          0.602              1.957              3.671
 Vibration     7          0.613              1.919              2.885
 Vibration     8          0.619              1.899              2.634
 Vibration     9          0.624              1.883              2.472
 Vibration    10          0.640              1.832              2.083
 Vibration    11          0.641              1.829              2.066
 Vibration    12          0.650              1.801              1.911
 Vibration    13          0.663              1.763              1.731
 Vibration    14          0.680              1.709              1.530
 Vibration    15          0.691              1.679              1.433
 Vibration    16          0.700              1.651              1.352
 Vibration    17          0.715              1.608              1.242
 Vibration    18          0.732              1.560              1.134
 Vibration    19          0.755              1.499              1.013
 Vibration    20          0.772              1.455              0.937
 Vibration    21          0.785              1.422              0.884
 Vibration    22          0.789              1.410              0.866
 Vibration    23          0.814              1.347              0.778
 Vibration    24          0.836              1.296              0.712
 Vibration    25          0.838              1.291              0.706
 Vibration    26          0.861              1.238              0.645
 Vibration    27          0.896              1.159              0.563
 Vibration    28          0.944              1.060              0.473
 Vibration    29          0.958              1.031              0.449

 Optimization completed.
    -- Stationary point found.
 Normal termination of Gaussian 16 at Mon Sep 21 08:22:06 2020.

 ----------------------------------------------------------------------
 #p b3lyp/6-31G(d) scrf=(iefpcm,read,solvent=water) geom=allcheck guess
 =read
 ----------------------------------------------------------------------

 Structure from the checkpoint file:  "SM38_m0.n.12.pdb.xyz.mst.n.w.chk"
 --------------------
 SM38_m0.n.12.pdb.xyz
 --------------------
 Charge =  0 Multiplicity = 1

 SCF Done:  E(RB3LYP) =  -1619.41595878     A.U. after    6 cycles
 Normal termination of Gaussian 16 at Mon Sep 21 08:22:55 2020.

 -----------------------------
 #p B3LYP/6-31G* geom=allcheck
 -----------------------------

 Structure from the checkpoint file:  "SM38_m0.n.12.pdb.xyz.mst.n.w.chk"
 --------------------
 SM38_m0.n.12.pdb.xyz
 --------------------
 Charge =  0 Multiplicity = 1

 SCF Done:  E(RB3LYP) =  -1619.38615311     A.U. after   15 cycles
 Normal termination of Gaussian 16 at Mon Sep 21 08:23:59 2020.
 Gaussian 16:  ES64L-G16RevB.01 20-Dec-2017

 ----------------------------------------------------------------------
 #p mp2/aug-cc-pVDZ scf=(MaxCycle=2000,NoVarAcc,NoIncFock) maxdisk=120G
 B geom=allcheck
 ----------------------------------------------------------------------

 Structure from the checkpoint file:  "SM38_m0.n.12.pdb.xyz.mst.n.w.chk"
 --------------------
 SM38_m0.n.12.pdb.xyz
 --------------------
 Charge =  0 Multiplicity = 1

                         Standard orientation:
 ---------------------------------------------------------------------
 Center     Atomic      Atomic             Coordinates (Angstroms)
 Number     Number       Type             X           Y           Z
 ---------------------------------------------------------------------
      1          6           0        1.435161    2.855526    1.175541
      2         16           0        0.368630    2.225187   -0.118137
      3          7           0       -0.120701    0.772227    0.604135
      4          6           0       -1.025073   -0.144837   -0.123506
      5          6           0       -2.351339    0.573513   -0.547823
      6         16           0       -3.322687   -0.745298    0.244663
      7          6           0       -1.672456   -1.120621    0.918959
      8          8           0       -4.298682   -0.268607    1.242482
      9          8           0       -3.760223   -1.769914   -0.726613
     10          6           0       -0.394180   -0.876419   -1.330060
     11          6           0        0.622414   -2.003343   -1.043801
     12          6           0        1.943427   -1.609684   -0.415011
     13          6           0        2.234095   -1.953316    0.912880
     14          6           0        3.455094   -1.604058    1.496708
     15          6           0        4.411496   -0.910683    0.754285
     16          6           0        4.140713   -0.574642   -0.575427
     17          6           0        2.919827   -0.923572   -1.152965
     18          8           0       -0.828751    3.076070   -0.239763
     19          8           0        1.170387    2.036104   -1.343785
     20          1           0        0.858600    2.949682    2.094028
     21          1           0        1.778348    3.832035    0.832073
     22          1           0        2.283214    2.182180    1.303919
     23          1           0        0.715250    0.275428    0.922265
     24          1           0       -2.525141    0.674141   -1.617461
     25          1           0       -2.515971    1.517638   -0.033624
     26          1           0       -1.398929   -2.172995    0.860227
     27          1           0       -1.596960   -0.749428    1.941343
     28          1           0        0.055939   -0.116730   -1.974931
     29          1           0       -1.216630   -1.325261   -1.896618
     30          1           0        0.820585   -2.483395   -2.008736
     31          1           0        0.150407   -2.768956   -0.420123
     32          1           0        1.497248   -2.504003    1.490756
     33          1           0        3.658591   -1.880004    2.526443
     34          1           0        5.361977   -0.641129    1.202683
     35          1           0        4.883407   -0.045466   -1.164067
     36          1           0        2.722962   -0.663975   -2.188770
 ---------------------------------------------------------------------

 SCF Done:  E(RHF) =  -1613.18868235     A.U. after   16 cycles
 E2 =    -0.2992530829D+01 EUMP2 =    -0.16161812131755D+04

 The electronic state is 1-A.
 Alpha  occ. eigenvalues --  -92.23913 -92.19899 -20.57069 -20.57030 -20.55899
 Alpha  occ. eigenvalues --  -20.55842 -15.63526 -11.34358 -11.30487 -11.29822
 Alpha  occ. eigenvalues --  -11.28855 -11.27110 -11.26581 -11.26345 -11.26315
 Alpha  occ. eigenvalues --  -11.26284 -11.26132 -11.26078 -11.25856  -9.20791
 Alpha  occ. eigenvalues --   -9.17172  -6.89289  -6.89269  -6.89184  -6.85663
 Alpha  occ. eigenvalues --   -6.85567  -6.85500  -1.46808  -1.44080  -1.34452
 Alpha  occ. eigenvalues --   -1.32811  -1.27436  -1.17929  -1.15472  -1.08874
 Alpha  occ. eigenvalues --   -1.05933  -1.03711  -1.02002  -0.98604  -0.93147
 Alpha  occ. eigenvalues --   -0.88072  -0.85027  -0.83767  -0.81529  -0.78201
 Alpha  occ. eigenvalues --   -0.74413  -0.71793  -0.71221  -0.69834  -0.67964
 Alpha  occ. eigenvalues --   -0.67017  -0.66297  -0.65969  -0.65371  -0.63362
 Alpha  occ. eigenvalues --   -0.63249  -0.62456  -0.61681  -0.61410  -0.60623
 Alpha  occ. eigenvalues --   -0.59424  -0.58685  -0.56899  -0.56045  -0.54551
 Alpha  occ. eigenvalues --   -0.52934  -0.52456  -0.51162  -0.50609  -0.49971
 Alpha  occ. eigenvalues --   -0.49647  -0.48668  -0.48405  -0.47837  -0.46730
 Alpha  occ. eigenvalues --   -0.46052  -0.43479  -0.42566  -0.35857  -0.34873
 Alpha virt. eigenvalues --    0.01960   0.03056   0.03344   0.03681   0.04654
 Alpha virt. eigenvalues --    0.04839   0.05306   0.05544   0.06317   0.06793
 Alpha virt. eigenvalues --    0.07195   0.07492   0.07801   0.08229   0.08758

 Mulliken charges:
               1
     1  C    0.209940
     2  S    3.022376
     3  N   -1.105361
     4  C   -0.669441
     5  C    0.573431
     6  S    2.921822
     7  C    0.520188
     8  O   -1.242500
     9  O   -1.269194
    10  C    0.629103
    11  C    0.320220
    12  C    0.924807
    13  C    0.637734
    14  C    0.122172
    15  C    0.806605
    16  C    0.072827
    17  C    0.500053
    18  O   -1.221442
    19  O   -1.294706
    20  H    0.014452
    21  H    0.012510
    22  H   -0.052089
    23  H    0.029732
    24  H   -0.282466
    25  H   -0.193259
    26  H   -0.211662
    27  H   -0.196224
    28  H   -0.122473
    29  H   -0.147195
    30  H   -0.099746
    31  H   -0.265411
    32  H   -0.710667
    33  H   -0.499086
    34  H   -0.485759
    35  H   -0.525243
    36  H   -0.724050
 Sum of Mulliken charges =  -0.00000

 Dipole moment (field-independent basis, Debye):
    X=              8.2703    Y=             -0.4466    Z=              2.7501  Tot=              8.7270
 Quadrupole moment (field-independent basis, Debye-Ang):
   XX=           -155.2387   YY=           -135.1427   ZZ=           -125.2217
   XY=             -0.4090   XZ=              9.9910   YZ=              4.3209

 Normal termination of Gaussian 16 at Mon Sep 21 12:17:35 2020.
