 Gaussian 16, Revision B.01,

 ----------------------------------------------------------------------
 #p b3lyp/6-31G(d) opt freq NoSymm scf=(MaxCycle=2000,NoVarAcc,NoIncFoc
 k) scrf=(iefpcm,read,solvent=water)
 ----------------------------------------------------------------------

 -------------------
 SM38_m1.a.4.pdb.xyz
 -------------------
 Symbolic Z-matrix:
 Charge = -1 Multiplicity = 1

 SCF Done:  E(RB3LYP) =  -1619.00305084     A.U. after   13 cycles
 SCF Done:  E(RB3LYP) =  -1619.00304205     A.U. after    8 cycles
 SCF Done:  E(RB3LYP) =  -1619.00306263     A.U. after    8 cycles
 SCF Done:  E(RB3LYP) =  -1619.00305250     A.U. after    8 cycles
 SCF Done:  E(RB3LYP) =  -1619.00304704     A.U. after    7 cycles
 SCF Done:  E(RB3LYP) =  -1619.00306201     A.U. after    8 cycles
 SCF Done:  E(RB3LYP) =  -1619.00304913     A.U. after    8 cycles
 SCF Done:  E(RB3LYP) =  -1619.00306186     A.U. after    8 cycles
 SCF Done:  E(RB3LYP) =  -1619.00304992     A.U. after    8 cycles
 SCF Done:  E(RB3LYP) =  -1619.00306184     A.U. after    8 cycles
 SCF Done:  E(RB3LYP) =  -1619.00306115     A.U. after    3 cycles
 SCF Done:  E(RB3LYP) =  -1619.00304960     A.U. after    8 cycles
 SCF Done:  E(RB3LYP) =  -1619.00306129     A.U. after    8 cycles
 SCF Done:  E(RB3LYP) =  -1619.00306124     A.U. after    4 cycles
 SCF Done:  E(RB3LYP) =  -1619.00306123     A.U. after    3 cycles
 SCF Done:  E(RB3LYP) =  -1619.00304937     A.U. after    8 cycles
 Optimization completed.
    -- Stationary point found.
 Normal termination of Gaussian 16 at Tue Sep 22 02:15:02 2020.

 --------------------------------------------------------------------
 #P Geom=AllCheck Guess=TCheck SCRF=Check GenChk RB3LYP/6-31G(d) Freq
 --------------------------------------------------------------------

 Structure from the checkpoint file:  "SM38_m1.a.4.pdb.xyz.mst.a.w.chk"
 -------------------
 SM38_m1.a.4.pdb.xyz
 -------------------
 Charge = -1 Multiplicity = 1

 SCF Done:  E(RB3LYP) =  -1619.00304937     A.U. after    1 cycles

  Exact polarizability: 275.979 -34.772 190.703   3.226  -6.071 232.935
 Approx polarizability: 297.751 -34.959 217.825   5.634  -9.896 277.064

                      1                      2                      3
                      A                      A                      A
 Frequencies --     14.1494                26.4503                45.2581
 Red. masses --      4.3783                 4.8377                 6.0504
 Frc consts  --      0.0005                 0.0020                 0.0073
 IR Inten    --      1.8346                 2.4657                 1.8715

                      4                      5                      6
                      A                      A                      A
 Frequencies --     47.7927                58.3121                92.8517
 Red. masses --      4.2860                 7.2899                 5.7954
 Frc consts  --      0.0058                 0.0146                 0.0294
 IR Inten    --      1.8148                10.0733                 0.8264

                      7                      8                      9
                      A                      A                      A
 Frequencies --    136.2064               146.7809               166.5117
 Red. masses --      6.6723                 4.9860                 5.1512
 Frc consts  --      0.0729                 0.0633                 0.0841
 IR Inten    --      2.4518                 2.1735                19.8356

                     10                     11                     12
                      A                      A                      A
 Frequencies --    203.0678               240.1763               240.7700
 Red. masses --      5.6876                 3.4515                 5.1855
 Frc consts  --      0.1382                 0.1173                 0.1771
 IR Inten    --      1.6312                14.8741                 0.0615

                     13                     14                     15
                      A                      A                      A
 Frequencies --    260.4068               288.6488               313.1183
 Red. masses --      1.2472                 3.0518                 3.1354
 Frc consts  --      0.0498                 0.1498                 0.1811
 IR Inten    --      4.7001                 9.0832                 1.6112

                     16                     17                     18
                      A                      A                      A
 Frequencies --    319.7941               328.2972               346.6286
 Red. masses --      3.0929                 2.5753                 3.7615
 Frc consts  --      0.1864                 0.1635                 0.2663
 IR Inten    --      1.0511                 1.7409                 2.1310

                     19                     20                     21
                      A                      A                      A
 Frequencies --    379.3054               398.9072               416.6705
 Red. masses --      2.7697                 3.3815                 2.9438
 Frc consts  --      0.2348                 0.3170                 0.3011
 IR Inten    --      8.7403                22.8811                 0.1257

                     22                     23                     24
                      A                      A                      A
 Frequencies --    452.8797               455.7759               473.8994
 Red. masses --      4.8011                 5.1654                 3.8175
 Frc consts  --      0.5802                 0.6322                 0.5051
 IR Inten    --     37.7096                35.3297                46.3864

                     25                     26                     27
                      A                      A                      A
 Frequencies --    492.2125               510.8745               556.9432
 Red. masses --      6.6828                 4.2050                 4.5209
 Frc consts  --      0.9539                 0.6466                 0.8262
 IR Inten    --    104.8593                 0.2682                35.1603

                     28                     29                     30
                      A                      A                      A
 Frequencies --    576.4817               599.0970               634.8802
 Red. masses --      2.8771                 7.0233                 6.3445
 Frc consts  --      0.5633                 1.4852                 1.5067
 IR Inten    --     23.1022                54.2245                 0.3779

                     31                     32                     33
                      A                      A                      A
 Frequencies --    665.6416               711.6940               723.4764
 Red. masses --      5.1940                 2.0881                 4.1427
 Frc consts  --      1.3559                 0.6232                 1.2776
 IR Inten    --     15.4667                36.2911               135.0721

                     34                     35                     36
                      A                      A                      A
 Frequencies --    749.3627               757.8012               773.5497
 Red. masses --      2.4288                 5.7935                 2.0455
 Frc consts  --      0.8036                 1.9602                 0.7212
 IR Inten    --     46.9942                55.0989                33.9452

                     37                     38                     39
                      A                      A                      A
 Frequencies --    793.3803               826.9552               837.7737
 Red. masses --      3.6118                 1.8816                 2.6607
 Frc consts  --      1.3395                 0.7581                 1.1003
 IR Inten    --     27.8047                31.5247                34.1272

                     40                     41                     42
                      A                      A                      A
 Frequencies --    858.8046               869.2591               915.3150
 Red. masses --      1.2653                 2.7223                 1.4734
 Frc consts  --      0.5498                 1.2120                 0.7273
 IR Inten    --      0.3517                 4.1238                 3.9364

                     43                     44                     45
                      A                      A                      A
 Frequencies --    935.0426               970.8839               975.7678
 Red. masses --      1.9694                 1.3579                 1.4688
 Frc consts  --      1.0145                 0.7541                 0.8240
 IR Inten    --     14.9885                 0.0857                27.8851

                     46                     47                     48
                      A                      A                      A
 Frequencies --    978.9945               990.1047               997.6160
 Red. masses --      1.4863                 2.1859                 1.3257
 Frc consts  --      0.8393                 1.2625                 0.7774
 IR Inten    --     14.8667                37.8728                 3.3628

                     49                     50                     51
                      A                      A                      A
 Frequencies --   1003.1186              1015.3555              1029.7728
 Red. masses --      3.3136                 6.0312                 1.8408
 Frc consts  --      1.9645                 3.6634                 1.1501
 IR Inten    --     23.9127                 1.4211                53.4369

                     52                     53                     54
                      A                      A                      A
 Frequencies --   1031.7720              1054.6409              1059.6767
 Red. masses --      1.2531                 2.6996                 2.7121
 Frc consts  --      0.7860                 1.7692                 1.7943
 IR Inten    --     37.5361                99.1871                83.3406

                     55                     56                     57
                      A                      A                      A
 Frequencies --   1075.3621              1089.4300              1115.9856
 Red. masses --      2.6299                 4.4530                 1.7165
 Frc consts  --      1.7918                 3.1139                 1.2596
 IR Inten    --    195.0349               461.4763                11.6661

                     58                     59                     60
                      A                      A                      A
 Frequencies --   1140.2290              1170.5207              1186.0346
 Red. masses --      4.6952                 2.4032                 1.5456
 Frc consts  --      3.5966                 1.9400                 1.2810
 IR Inten    --    135.8314               318.6323               139.0836

                     61                     62                     63
                      A                      A                      A
 Frequencies --   1186.3138              1209.9469              1216.4391
 Red. masses --      1.4622                 1.1666                 1.3418
 Frc consts  --      1.2124                 1.0062                 1.1698
 IR Inten    --    121.9514                 0.3731                51.5225

                     64                     65                     66
                      A                      A                      A
 Frequencies --   1223.6846              1234.3068              1249.9663
 Red. masses --      2.1382                 2.8089                 2.2169
 Frc consts  --      1.8865                 2.5214                 2.0407
 IR Inten    --    127.3017               194.7954               197.0201

                     67                     68                     69
                      A                      A                      A
 Frequencies --   1255.6078              1318.7149              1352.1607
 Red. masses --      2.9073                 1.3824                 3.3437
 Frc consts  --      2.7006                 1.4164                 3.6020
 IR Inten    --     69.4790                69.6789                 2.8051

                     70                     71                     72
                      A                      A                      A
 Frequencies --   1364.9195              1372.2372              1393.6645
 Red. masses --      1.4504                 1.2127                 1.3666
 Frc consts  --      1.5920                 1.3455                 1.5639
 IR Inten    --      0.1412                10.9766                 0.2283

                     73                     74                     75
                      A                      A                      A
 Frequencies --   1397.6720              1455.4012              1468.9348
 Red. masses --      1.3488                 1.0933                 1.0934
 Frc consts  --      1.5524                 1.3645                 1.3901
 IR Inten    --      4.5517                24.9480                 4.1606

                     76                     77                     78
                      A                      A                      A
 Frequencies --   1479.4331              1483.4651              1497.4568
 Red. masses --      1.0551                 1.0515                 2.0502
 Frc consts  --      1.3606                 1.3634                 2.7087
 IR Inten    --     10.8230                 3.4000                 6.2793

                     79                     80                     81
                      A                      A                      A
 Frequencies --   1505.8862              1509.9793              1542.9329
 Red. masses --      1.1080                 1.0992                 2.1840
 Frc consts  --      1.4804                 1.4766                 3.0633
 IR Inten    --     11.0888                 2.8193                20.0687

                     82                     83                     84
                      A                      A                      A
 Frequencies --   1637.1642              1658.2384              3040.1145
 Red. masses --      5.4010                 5.5574                 1.0644
 Frc consts  --      8.5292                 9.0036                 5.7958
 IR Inten    --      1.4219                12.0664                30.3891

                     85                     86                     87
                      A                      A                      A
 Frequencies --   3053.8191              3078.1830              3082.7344
 Red. masses --      1.0615                 1.0313                 1.1002
 Frc consts  --      5.8327                 5.7573                 6.1602
 IR Inten    --     52.9102                 7.1429                37.4735

                     88                     89                     90
                      A                      A                      A
 Frequencies --   3095.9020              3120.8354              3122.6258
 Red. masses --      1.0990                 1.0568                 1.0580
 Frc consts  --      6.2059                 6.0642                 6.0783
 IR Inten    --     69.0781                 7.2122                10.1411

                     91                     92                     93
                      A                      A                      A
 Frequencies --   3169.3505              3174.5242              3180.7852
 Red. masses --      1.1058                 1.0867                 1.0864
 Frc consts  --      6.5445                 6.4526                 6.4758
 IR Inten    --     13.8919                17.4589                 6.9190

                     94                     95                     96
                      A                      A                      A
 Frequencies --   3185.0393              3189.8836              3193.4745
 Red. masses --      1.1068                 1.0900                 1.1117
 Frc consts  --      6.6154                 6.5350                 6.6797
 IR Inten    --      4.2243                19.0877                 2.7990

                     97                     98                     99
                      A                      A                      A
 Frequencies --   3196.8774              3199.6464              3208.7909
 Red. masses --      1.0940                 1.1100                 1.0978
 Frc consts  --      6.5876                 6.6956                 6.6595
 IR Inten    --     81.3743                18.1987                32.2317

 - Thermochemistry -
 -------------------
 Temperature   298.150 Kelvin.  Pressure   1.00000 Atm.
 Atom     1 has atomic number  6 and mass  12.00000

 Molecular mass:   302.05208 amu.
 Principal axes and moments of inertia in atomic units:
                           1         2         3
     Eigenvalues --  3505.242418484.99185**********
           X            0.99938  -0.01509  -0.03191
           Y            0.02114   0.97980   0.19888
           Z            0.02827  -0.19943   0.97950
 This molecule is an asymmetric top.
 Rotational symmetry number  1.
 Warning -- assumption of classical behavior for rotation
           may cause significant error
 Rotational temperatures (Kelvin)      0.02471     0.01021     0.00825
 Rotational constants (GHZ):           0.51487     0.21270     0.17200
 Zero-point vibrational energy     716764.0 (Joules/Mol)
                                  171.31071 (Kcal/Mol)
 Warning -- explicit consideration of  29 degrees of freedom as
           vibrations may cause significant error
 Vibrational temperatures:     20.36    38.06    65.12    68.76    83.90
          (Kelvin)            133.59   195.97   211.18   239.57   292.17
                              345.56   346.41   374.67   415.30   450.51
                              460.11   472.35   498.72   545.74   573.94
                              599.50   651.59   655.76   681.84   708.18
                              735.03   801.32   829.43   861.97   913.45
                              957.71  1023.97  1040.92  1078.17  1090.31
                             1112.97  1141.50  1189.80  1205.37  1235.63
                             1250.67  1316.93  1345.32  1396.89  1403.91
                             1408.55  1424.54  1435.35  1443.26  1460.87
                             1481.61  1484.49  1517.39  1524.64  1547.21
                             1567.45  1605.65  1640.54  1684.12  1706.44
                             1706.84  1740.84  1750.18  1760.61  1775.89
                             1798.42  1806.54  1897.34  1945.46  1963.81
                             1974.34  2005.17  2010.94  2094.00  2113.47
                             2128.57  2134.38  2154.51  2166.63  2172.52
                             2219.94  2355.51  2385.84  4374.05  4393.76
                             4428.82  4435.37  4454.31  4490.19  4492.76
                             4559.99  4567.43  4576.44  4582.56  4589.53
                             4594.70  4599.59  4603.58  4616.73

 Zero-point correction=                           0.273001 (Hartree/Particle)
 Thermal correction to Energy=                    0.291416
 Thermal correction to Enthalpy=                  0.292360
 Thermal correction to Gibbs Free Energy=         0.224153
 Sum of electronic and zero-point Energies=          -1618.730048
 Sum of electronic and thermal Energies=             -1618.711634
 Sum of electronic and thermal Enthalpies=           -1618.710690
 Sum of electronic and thermal Free Energies=        -1618.778897

                     E (Thermal)             CV                S
                      KCal/Mol        Cal/Mol-Kelvin    Cal/Mol-Kelvin
 Total                  182.866             70.842            143.554
 Electronic               0.000              0.000              0.000
 Translational            0.889              2.981             43.013
 Rotational               0.889              2.981             34.100
 Vibrational            181.089             64.880             66.441
 Vibration     1          0.593              1.986              7.322
 Vibration     2          0.593              1.985              6.079
 Vibration     3          0.595              1.979              5.015
 Vibration     4          0.595              1.978              4.907
 Vibration     5          0.596              1.974              4.514
 Vibration     6          0.602              1.954              3.599
 Vibration     7          0.614              1.917              2.856
 Vibration     8          0.617              1.906              2.714
 Vibration     9          0.624              1.884              2.474
 Vibration    10          0.639              1.836              2.105
 Vibration    11          0.657              1.779              1.802
 Vibration    12          0.658              1.778              1.797
 Vibration    13          0.668              1.745              1.659
 Vibration    14          0.685              1.695              1.482
 Vibration    15          0.701              1.649              1.346
 Vibration    16          0.706              1.636              1.311
 Vibration    17          0.712              1.619              1.268
 Vibration    18          0.725              1.582              1.181
 Vibration    19          0.749              1.514              1.042
 Vibration    20          0.765              1.472              0.967
 Vibration    21          0.780              1.434              0.903
 Vibration    22          0.811              1.355              0.787
 Vibration    23          0.814              1.348              0.778
 Vibration    24          0.831              1.308              0.727
 Vibration    25          0.848              1.267              0.678
 Vibration    26          0.866              1.226              0.631
 Vibration    27          0.912              1.125              0.530
 Vibration    28          0.933              1.082              0.492
 Vibration    29          0.957              1.034              0.451

 Optimization completed.
    -- Stationary point found.
 Normal termination of Gaussian 16 at Tue Sep 22 02:28:05 2020.

 ----------------------------------------------------------------------
 #p b3lyp/6-31G(d) scrf=(iefpcm,read,solvent=water) geom=allcheck guess
 =read
 ----------------------------------------------------------------------

 Structure from the checkpoint file:  "SM38_m1.a.4.pdb.xyz.mst.a.w.chk"
 -------------------
 SM38_m1.a.4.pdb.xyz
 -------------------
 Charge = -1 Multiplicity = 1

 SCF Done:  E(RB3LYP) =  -1619.00303472     A.U. after    7 cycles
 Normal termination of Gaussian 16 at Tue Sep 22 02:28:53 2020.

 -----------------------------
 #p B3LYP/6-31G* geom=allcheck
 -----------------------------

 Structure from the checkpoint file:  "SM38_m1.a.4.pdb.xyz.mst.a.w.chk"
 -------------------
 SM38_m1.a.4.pdb.xyz
 -------------------
 Charge = -1 Multiplicity = 1

 SCF Done:  E(RB3LYP) =  -1618.83315312     A.U. after   15 cycles
 Normal termination of Gaussian 16 at Tue Sep 22 02:29:53 2020.
 Gaussian 16:  ES64L-G16RevB.01 20-Dec-2017

 ----------------------------------------------------------------------
 #p mp2/aug-cc-pVDZ scf=(MaxCycle=2000,NoVarAcc,NoIncFock) maxdisk=120G
 B geom=allcheck
 ----------------------------------------------------------------------

 Structure from the checkpoint file:  "SM38_m1.a.4.pdb.xyz.mst.a.w.chk"
 -------------------
 SM38_m1.a.4.pdb.xyz
 -------------------
 Charge = -1 Multiplicity = 1

                         Standard orientation:
 ---------------------------------------------------------------------
 Center     Atomic      Atomic             Coordinates (Angstroms)
 Number     Number       Type             X           Y           Z
 ---------------------------------------------------------------------
      1          6           0        1.275974    1.931556   -1.391725
      2         16           0        0.177041    2.151765    0.036820
      3          7           0       -0.226357    0.770364    0.699021
      4          6           0       -1.070008   -0.213737    0.039342
      5          6           0       -2.289878    0.322136   -0.826982
      6         16           0       -3.431192   -0.752110    0.081496
      7          6           0       -1.961084   -0.922640    1.136040
      8          8           0       -4.565309   -0.045346    0.720176
      9          8           0       -3.733457   -2.004849   -0.654373
     10          6           0       -0.298231   -1.279102   -0.785434
     11          6           0        0.760333   -2.115495   -0.022215
     12          6           0        2.158894   -1.534507    0.069172
     13          6           0        2.690165   -1.092243    1.288956
     14          6           0        3.990718   -0.587119    1.368871
     15          6           0        4.788319   -0.516114    0.224081
     16          6           0        4.274826   -0.959085   -0.998540
     17          6           0        2.975249   -1.465550   -1.071091
     18          8           0        0.999047    2.887560    1.040762
     19          8           0       -0.963266    2.953169   -0.522717
     20          1           0        2.150368    1.352582   -1.090556
     21          1           0        1.577477    2.922600   -1.739896
     22          1           0        0.739506    1.411486   -2.188431
     23          1           0       -2.261119    0.126859   -1.900746
     24          1           0       -2.517064    1.368154   -0.625673
     25          1           0       -1.730637   -1.957297    1.394331
     26          1           0       -2.073982   -0.310819    2.032154
     27          1           0        0.170440   -0.786247   -1.645355
     28          1           0       -1.037656   -1.974562   -1.202008
     29          1           0        0.832467   -3.082751   -0.535744
     30          1           0        0.397880   -2.340418    0.987615
     31          1           0        2.076647   -1.140409    2.185174
     32          1           0        4.380014   -0.250371    2.326228
     33          1           0        5.800288   -0.124802    0.284024
     34          1           0        4.888311   -0.916730   -1.894881
     35          1           0        2.590190   -1.817197   -2.026078
 ---------------------------------------------------------------------

 SCF Done:  E(RHF) =  -1612.64114133     A.U. after   17 cycles
 E2 =    -0.3005171787D+01 EUMP2 =    -0.16156463131218D+04

 The electronic state is 1-A.
 Alpha  occ. eigenvalues --  -92.07326 -92.04463 -20.44155 -20.44017 -20.38208
 Alpha  occ. eigenvalues --  -20.37458 -15.38287 -11.19149 -11.16221 -11.15946
 Alpha  occ. eigenvalues --  -11.15937 -11.15603 -11.15486 -11.15333 -11.15306
 Alpha  occ. eigenvalues --  -11.14819 -11.14792 -11.13702 -11.13335  -9.04697
 Alpha  occ. eigenvalues --   -9.01145  -6.73189  -6.73086  -6.72999  -6.69697
 Alpha  occ. eigenvalues --   -6.69627  -6.69573  -1.31960  -1.26737  -1.20845
 Alpha  occ. eigenvalues --   -1.14463  -1.07699  -1.06540  -0.98227  -0.97080
 Alpha  occ. eigenvalues --   -0.92718  -0.90012  -0.87326  -0.84822  -0.80362
 Alpha  occ. eigenvalues --   -0.74178  -0.73386  -0.70101  -0.67050  -0.61924
 Alpha  occ. eigenvalues --   -0.60777  -0.57045  -0.56126  -0.55169  -0.54270
 Alpha  occ. eigenvalues --   -0.54120  -0.51354  -0.50864  -0.50045  -0.49759
 Alpha  occ. eigenvalues --   -0.49319  -0.48997  -0.48504  -0.46698  -0.45407
 Alpha  occ. eigenvalues --   -0.44364  -0.44289  -0.43512  -0.41137  -0.40316
 Alpha  occ. eigenvalues --   -0.39190  -0.38749  -0.37755  -0.36928  -0.36419
 Alpha  occ. eigenvalues --   -0.34469  -0.33230  -0.32087  -0.30853  -0.29155
 Alpha  occ. eigenvalues --   -0.28484  -0.25209  -0.24535  -0.23818  -0.21119
 Alpha virt. eigenvalues --    0.09491   0.10458   0.10977   0.11912   0.12170
 Alpha virt. eigenvalues --    0.12657   0.13428   0.14187   0.14577   0.15148
 Alpha virt. eigenvalues --    0.15372   0.16038   0.17003   0.17282   0.17703

 Mulliken charges:
               1
     1  C    0.301470
     2  S    2.878195
     3  N   -1.811243
     4  C    0.163457
     5  C    0.576693
     6  S    2.882915
     7  C    0.477747
     8  O   -1.288659
     9  O   -1.324496
    10  C    0.493130
    11  C    0.446183
    12  C    0.988436
    13  C    0.605652
    14  C    0.076332
    15  C    0.738939
    16  C    0.147452
    17  C    0.458966
    18  O   -1.285599
    19  O   -1.329920
    20  H   -0.131158
    21  H   -0.185934
    22  H   -0.046312
    23  H   -0.321288
    24  H   -0.188170
    25  H   -0.230935
    26  H   -0.269539
    27  H   -0.287248
    28  H   -0.188557
    29  H   -0.107811
    30  H   -0.320806
    31  H   -0.718814
    32  H   -0.487127
    33  H   -0.481258
    34  H   -0.508738
    35  H   -0.721957
 Sum of Mulliken charges =  -1.00000

 Dipole moment (field-independent basis, Debye):
    X=              7.3350    Y=             -6.9217    Z=             -3.1317  Tot=             10.5603
 Quadrupole moment (field-independent basis, Debye-Ang):
   XX=           -184.8719   YY=           -172.6264   ZZ=           -130.2379
   XY=             -4.4944   XZ=             -3.7428   YZ=            -10.4296

 Normal termination of Gaussian 16 at Tue Sep 22 03:32:30 2020.
