 Gaussian 16, Revision B.01,

 ----------------------------------------------------------------------
 #p b3lyp/6-31G(d) opt freq NoSymm scf=(MaxCycle=2000,NoVarAcc,NoIncFoc
 k) scrf=(iefpcm,read,solvent=water)
 ----------------------------------------------------------------------

 -------------------
 SM38_m0.n.1.pdb.xyz
 -------------------
 Symbolic Z-matrix:
 Charge =  0 Multiplicity = 1

 SCF Done:  E(RB3LYP) =  -1619.41696931     A.U. after   13 cycles
 SCF Done:  E(RB3LYP) =  -1619.41697417     A.U. after    8 cycles
 SCF Done:  E(RB3LYP) =  -1619.41697538     A.U. after    8 cycles
 SCF Done:  E(RB3LYP) =  -1619.41698060     A.U. after    8 cycles
 SCF Done:  E(RB3LYP) =  -1619.41698049     A.U. after    7 cycles
 SCF Done:  E(RB3LYP) =  -1619.41698293     A.U. after    6 cycles
 SCF Done:  E(RB3LYP) =  -1619.41698598     A.U. after    7 cycles
 SCF Done:  E(RB3LYP) =  -1619.41698840     A.U. after    7 cycles
 SCF Done:  E(RB3LYP) =  -1619.41699286     A.U. after    7 cycles
 SCF Done:  E(RB3LYP) =  -1619.41699363     A.U. after    6 cycles
 Optimization completed.
    -- Stationary point found.
 Normal termination of Gaussian 16 at Tue Sep 22 01:59:21 2020.

 --------------------------------------------------------------------
 #P Geom=AllCheck Guess=TCheck SCRF=Check GenChk RB3LYP/6-31G(d) Freq
 --------------------------------------------------------------------

 Structure from the checkpoint file:  "SM38_m0.n.1.pdb.xyz.mst.n.w.chk"
 -------------------
 SM38_m0.n.1.pdb.xyz
 -------------------
 Charge =  0 Multiplicity = 1

 SCF Done:  E(RB3LYP) =  -1619.41699363     A.U. after    1 cycles

  Exact polarizability: 234.543 -18.970 239.068  34.571  10.443 201.993
 Approx polarizability: 258.639 -22.697 274.928  42.807  11.148 235.207

                      1                      2                      3
                      A                      A                      A
 Frequencies --     10.8687                22.7792                29.0304
 Red. masses --      5.5981                 5.4527                 3.7694
 Frc consts  --      0.0004                 0.0017                 0.0019
 IR Inten    --      0.2283                 9.8101                 0.1606

                      4                      5                      6
                      A                      A                      A
 Frequencies --     40.5701                55.9990                78.9557
 Red. masses --      7.4764                 5.9139                 5.0390
 Frc consts  --      0.0073                 0.0109                 0.0185
 IR Inten    --      7.3339                 4.1572                 5.7369

                      7                      8                      9
                      A                      A                      A
 Frequencies --    131.0323               150.0192               181.6263
 Red. masses --      7.1865                 5.5348                 6.0038
 Frc consts  --      0.0727                 0.0734                 0.1167
 IR Inten    --      4.2644                 3.6009                 1.2298

                     10                     11                     12
                      A                      A                      A
 Frequencies --    206.9449               216.8741               223.9349
 Red. masses --      3.0677                 3.5377                 2.3611
 Frc consts  --      0.0774                 0.0980                 0.0698
 IR Inten    --      8.1816                 1.5216                11.5313

                     13                     14                     15
                      A                      A                      A
 Frequencies --    239.7891               277.9759               297.3841
 Red. masses --      1.9031                 2.9032                 3.8615
 Frc consts  --      0.0645                 0.1322                 0.2012
 IR Inten    --      1.7640                10.1651                 7.9617

                     16                     17                     18
                      A                      A                      A
 Frequencies --    301.9544               342.4493               357.7050
 Red. masses --      3.0931                 2.4951                 3.3561
 Frc consts  --      0.1662                 0.1724                 0.2530
 IR Inten    --      4.3708                 6.7733                 2.3014

                     19                     20                     21
                      A                      A                      A
 Frequencies --    370.9319               400.3073               417.7965
 Red. masses --      2.2438                 5.8061                 2.9540
 Frc consts  --      0.1819                 0.5482                 0.3038
 IR Inten    --      4.7762                57.6839                 0.8655

                     22                     23                     24
                      A                      A                      A
 Frequencies --    421.8956               440.0663               465.9831
 Red. masses --      2.8684                 3.7529                 3.3962
 Frc consts  --      0.3008                 0.4282                 0.4345
 IR Inten    --     37.3612                18.4355                42.7960

                     25                     26                     27
                      A                      A                      A
 Frequencies --    488.2337               510.4535               538.3374
 Red. masses --      4.6926                 3.8878                 4.7549
 Frc consts  --      0.6591                 0.5969                 0.8119
 IR Inten    --     16.1258                34.6273                41.3914

                     28                     29                     30
                      A                      A                      A
 Frequencies --    569.2789               593.4069               604.2119
 Red. masses --      4.7716                 3.5260                 2.7441
 Frc consts  --      0.9111                 0.7315                 0.5902
 IR Inten    --     29.6445                73.4931               138.6897

                     31                     32                     33
                      A                      A                      A
 Frequencies --    634.6073               686.1443               716.0738
 Red. masses --      6.3735                 3.2272                 2.0874
 Frc consts  --      1.5123                 0.8952                 0.6306
 IR Inten    --      0.3923                 2.8788                32.1274

                     34                     35                     36
                      A                      A                      A
 Frequencies --    750.8664               759.9078               764.8221
 Red. masses --      4.4022                 1.9961                 3.2707
 Frc consts  --      1.4623                 0.6791                 1.1272
 IR Inten    --     31.3722                97.3441                50.9258

                     37                     38                     39
                      A                      A                      A
 Frequencies --    777.8396               813.7462               830.0046
 Red. masses --      3.3045                 1.7556                 3.1180
 Frc consts  --      1.1780                 0.6850                 1.2656
 IR Inten    --     34.1423                25.8136                30.8583

                     40                     41                     42
                      A                      A                      A
 Frequencies --    861.8907               864.5883               896.5243
 Red. masses --      2.9933                 1.2613                 1.7083
 Frc consts  --      1.3101                 0.5555                 0.8090
 IR Inten    --     60.9795                 0.5463                31.4583

                     43                     44                     45
                      A                      A                      A
 Frequencies --    918.6030               929.3278               949.3492
 Red. masses --      1.9265                 2.0152                 1.9955
 Frc consts  --      0.9578                 1.0254                 1.0596
 IR Inten    --      0.8719                94.2437                47.7142

                     46                     47                     48
                      A                      A                      A
 Frequencies --    977.6821               998.9693              1004.6996
 Red. masses --      1.3580                 1.7591                 1.3773
 Frc consts  --      0.7648                 1.0343                 0.8191
 IR Inten    --      0.3048                71.5009                11.2008

                     49                     50                     51
                      A                      A                      A
 Frequencies --   1007.0289              1009.0583              1016.5685
 Red. masses --      1.2569                 1.5797                 6.1262
 Frc consts  --      0.7510                 0.9477                 3.7300
 IR Inten    --      0.5265                 7.8758                 0.2447

                     52                     53                     54
                      A                      A                      A
 Frequencies --   1037.1954              1055.2251              1058.3789
 Red. masses --      1.9940                 1.2270                 2.1493
 Frc consts  --      1.2638                 0.8050                 1.4185
 IR Inten    --     39.8116                13.4001                17.4811

                     55                     56                     57
                      A                      A                      A
 Frequencies --   1082.4207              1088.4001              1112.0350
 Red. masses --      2.0115                 4.0039                 4.5562
 Frc consts  --      1.3886                 2.7946                 3.3196
 IR Inten    --      2.8308               268.3727               151.0419

                     58                     59                     60
                      A                      A                      A
 Frequencies --   1122.0115              1156.5673              1189.6307
 Red. masses --      1.8668                 3.7635                 1.1509
 Frc consts  --      1.3847                 2.9661                 0.9596
 IR Inten    --     15.6066               112.6554                 0.6840

                     61                     62                     63
                      A                      A                      A
 Frequencies --   1191.6557              1206.9714              1216.9739
 Red. masses --      1.2332                 1.1372                 1.6133
 Frc consts  --      1.0318                 0.9761                 1.4078
 IR Inten    --      2.0131                 0.9749                74.0735

                     64                     65                     66
                      A                      A                      A
 Frequencies --   1229.0030              1234.3166              1263.4222
 Red. masses --      1.8052                 2.2549                 4.0205
 Frc consts  --      1.6065                 2.0241                 3.7811
 IR Inten    --     94.9099                82.2077               239.0388

                     67                     68                     69
                      A                      A                      A
 Frequencies --   1272.4536              1281.9926              1298.6347
 Red. masses --      5.5863                 2.2299                 1.5320
 Frc consts  --      5.3291                 2.1592                 1.5222
 IR Inten    --    320.9395                76.3977               102.9892

                     70                     71                     72
                      A                      A                      A
 Frequencies --   1349.0262              1364.0312              1387.2297
 Red. masses --      2.6426                 1.7846                 1.2924
 Frc consts  --      2.8335                 1.9563                 1.4653
 IR Inten    --      2.2007                 0.4539                15.5996

                     73                     74                     75
                      A                      A                      A
 Frequencies --   1388.7011              1398.2816              1452.4395
 Red. masses --      1.3294                 1.4464                 1.1146
 Frc consts  --      1.5105                 1.6662                 1.3854
 IR Inten    --     11.6934                 4.4468                32.1692

                     76                     77                     78
                      A                      A                      A
 Frequencies --   1463.9617              1471.6818              1474.8908
 Red. masses --      1.0982                 1.0673                 1.0463
 Frc consts  --      1.3867                 1.3619                 1.3410
 IR Inten    --     24.9185                12.1065                10.2896

                     79                     80                     81
                      A                      A                      A
 Frequencies --   1486.9641              1494.3535              1499.7010
 Red. masses --      1.1326                 1.1299                 2.0637
 Frc consts  --      1.4755                 1.4866                 2.7346
 IR Inten    --     10.1144                37.6179                 4.6902

                     82                     83                     84
                      A                      A                      A
 Frequencies --   1512.5475              1543.3693              1641.7303
 Red. masses --      1.1092                 2.2280                 5.4774
 Frc consts  --      1.4952                 3.1268                 8.6982
 IR Inten    --     14.1090                16.2324                 1.5699

                     85                     86                     87
                      A                      A                      A
 Frequencies --   1662.3241              3055.6545              3070.8895
 Red. masses --      5.6788                 1.0653                 1.0613
 Frc consts  --      9.2456                 5.8604                 5.8966
 IR Inten    --      8.0520                29.0653                45.2273

                     88                     89                     90
                      A                      A                      A
 Frequencies --   3098.5103              3110.2894              3116.6305
 Red. masses --      1.0991                 1.0297                 1.1020
 Frc consts  --      6.2169                 5.8693                 6.3064
 IR Inten    --     35.1910                 0.0491                41.2481

                     91                     92                     93
                      A                      A                      A
 Frequencies --   3147.8984              3152.2205              3193.3822
 Red. masses --      1.0573                 1.0592                 1.0858
 Frc consts  --      6.1731                 6.2010                 6.5240
 IR Inten    --      1.5443                17.5539                11.7558

                     94                     95                     96
                      A                      A                      A
 Frequencies --   3196.4295              3204.5015              3211.1229
 Red. masses --      1.0871                 1.0903                 1.1068
 Frc consts  --      6.5441                 6.5966                 6.7242
 IR Inten    --      4.2287                27.5912                 0.0162

                     97                     98                     99
                      A                      A                      A
 Frequencies --   3213.5204              3219.6768              3223.2967
 Red. masses --      1.0941                 1.1114                 1.0978
 Frc consts  --      6.6569                 6.7881                 6.7198
 IR Inten    --     73.2565                 0.9581                26.3246

                    100                    101                    102
                      A                      A                      A
 Frequencies --   3225.2186              3233.6922              3485.2511
 Red. masses --      1.1088                 1.1094                 1.0757
 Frc consts  --      6.7957                 6.8349                 7.6988
 IR Inten    --      0.0409                10.3440               111.3862

 - Thermochemistry -
 -------------------
 Temperature   298.150 Kelvin.  Pressure   1.00000 Atm.
 Atom     1 has atomic number  6 and mass  12.00000

 Molecular mass:   303.05990 amu.
 Principal axes and moments of inertia in atomic units:
                           1         2         3
     Eigenvalues --  4302.968007553.12115**********
           X            0.99918   0.04049   0.00236
           Y           -0.04056   0.99724   0.06215
           Z            0.00017  -0.06219   0.99806
 This molecule is an asymmetric top.
 Rotational symmetry number  1.
 Warning -- assumption of classical behavior for rotation
           may cause significant error
 Rotational temperatures (Kelvin)      0.02013     0.01147     0.00866
 Rotational constants (GHZ):           0.41942     0.23894     0.18039
 Zero-point vibrational energy     753658.2 (Joules/Mol)
                                  180.12862 (Kcal/Mol)
 Warning -- explicit consideration of  30 degrees of freedom as
           vibrations may cause significant error
 Vibrational temperatures:     15.64    32.77    41.77    58.37    80.57
          (Kelvin)            113.60   188.53   215.84   261.32   297.75
                              312.03   322.19   345.00   399.95   427.87
                              434.45   492.71   514.66   533.69   575.95
                              601.12   607.01   633.16   670.45   702.46
                              734.43   774.55   819.07   853.78   869.33
                              913.06   987.21  1030.27  1080.33  1093.34
                             1100.41  1119.14  1170.80  1194.19  1240.07
                             1243.95  1289.90  1321.66  1337.10  1365.90
                             1406.67  1437.29  1445.54  1448.89  1451.81
                             1462.62  1492.29  1518.23  1522.77  1557.36
                             1565.96  1599.97  1614.32  1664.04  1711.61
                             1714.53  1736.56  1750.95  1768.26  1775.91
                             1817.78  1830.78  1844.50  1868.45  1940.95
                             1962.54  1995.91  1998.03  2011.82  2089.74
                             2106.31  2117.42  2122.04  2139.41  2150.04
                             2157.74  2176.22  2220.56  2362.08  2391.71
                             4396.41  4418.33  4458.07  4475.01  4484.14
                             4529.12  4535.34  4594.56  4598.95  4610.56
                             4620.09  4623.54  4632.40  4637.61  4640.37
                             4652.56  5014.50

 Zero-point correction=                           0.287053 (Hartree/Particle)
 Thermal correction to Energy=                    0.305820
 Thermal correction to Enthalpy=                  0.306765
 Thermal correction to Gibbs Free Energy=         0.236932
 Sum of electronic and zero-point Energies=          -1619.129940
 Sum of electronic and thermal Energies=             -1619.111173
 Sum of electronic and thermal Enthalpies=           -1619.110229
 Sum of electronic and thermal Free Energies=        -1619.180062

                     E (Thermal)             CV                S
                      KCal/Mol        Cal/Mol-Kelvin    Cal/Mol-Kelvin
 Total                  191.905             71.810            146.975
 Electronic               0.000              0.000              0.000
 Translational            0.889              2.981             43.023
 Rotational               0.889              2.981             34.141
 Vibrational            190.128             65.849             69.811
 Vibration     1          0.593              1.987              7.846
 Vibration     2          0.593              1.985              6.376
 Vibration     3          0.593              1.984              5.895
 Vibration     4          0.594              1.981              5.231
 Vibration     5          0.596              1.975              4.593
 Vibration     6          0.600              1.963              3.917
 Vibration     7          0.612              1.922              2.931
 Vibration     8          0.618              1.903              2.672
 Vibration     9          0.630              1.865              2.312
 Vibration    10          0.641              1.830              2.070
 Vibration    11          0.646              1.815              1.985
 Vibration    12          0.649              1.805              1.927
 Vibration    13          0.657              1.780              1.804
 Vibration    14          0.679              1.714              1.546
 Vibration    15          0.691              1.679              1.432
 Vibration    16          0.694              1.670              1.406
 Vibration    17          0.722              1.591              1.201
 Vibration    18          0.733              1.559              1.132
 Vibration    19          0.743              1.532              1.076
 Vibration    20          0.766              1.469              0.962
 Vibration    21          0.781              1.432              0.899
 Vibration    22          0.784              1.423              0.886
 Vibration    23          0.800              1.383              0.826
 Vibration    24          0.823              1.326              0.749
 Vibration    25          0.844              1.276              0.688
 Vibration    26          0.866              1.227              0.632
 Vibration    27          0.893              1.165              0.569
 Vibration    28          0.925              1.098              0.506
 Vibration    29          0.951              1.046              0.461
 Vibration    30          0.963              1.023              0.442

 Optimization completed on the basis of negligible forces.
    -- Stationary point found.
 Normal termination of Gaussian 16 at Tue Sep 22 02:12:43 2020.

 ----------------------------------------------------------------------
 #p b3lyp/6-31G(d) scrf=(iefpcm,read,solvent=water) geom=allcheck guess
 =read
 ----------------------------------------------------------------------

 Structure from the checkpoint file:  "SM38_m0.n.1.pdb.xyz.mst.n.w.chk"
 -------------------
 SM38_m0.n.1.pdb.xyz
 -------------------
 Charge =  0 Multiplicity = 1

 SCF Done:  E(RB3LYP) =  -1619.41689616     A.U. after    7 cycles
 Normal termination of Gaussian 16 at Tue Sep 22 02:13:28 2020.

 -----------------------------
 #p B3LYP/6-31G* geom=allcheck
 -----------------------------

 Structure from the checkpoint file:  "SM38_m0.n.1.pdb.xyz.mst.n.w.chk"
 -------------------
 SM38_m0.n.1.pdb.xyz
 -------------------
 Charge =  0 Multiplicity = 1

 SCF Done:  E(RB3LYP) =  -1619.38458047     A.U. after   15 cycles
 Normal termination of Gaussian 16 at Tue Sep 22 02:14:23 2020.
 Gaussian 16:  ES64L-G16RevB.01 20-Dec-2017

 ----------------------------------------------------------------------
 #p mp2/aug-cc-pVDZ scf=(MaxCycle=2000,NoVarAcc,NoIncFock) maxdisk=120G
 B geom=allcheck
 ----------------------------------------------------------------------

 Structure from the checkpoint file:  "SM38_m0.n.1.pdb.xyz.mst.n.w.chk"
 -------------------
 SM38_m0.n.1.pdb.xyz
 -------------------
 Charge =  0 Multiplicity = 1

                         Standard orientation:
 ---------------------------------------------------------------------
 Center     Atomic      Atomic             Coordinates (Angstroms)
 Number     Number       Type             X           Y           Z
 ---------------------------------------------------------------------
      1          6           0        4.188425   -0.809954   -0.996366
      2         16           0        2.661450   -1.370937   -0.248649
      3          7           0        2.148814    0.042437    0.525382
      4          6           0        0.703312    0.319201    0.702597
      5          6           0        0.073920    0.730041   -0.667935
      6         16           0        0.329488    2.489087   -0.261408
      7          6           0        0.633271    1.728986    1.369020
      8          8           0        1.560851    3.041337   -0.862547
      9          8           0       -0.897398    3.309271   -0.319139
     10          6           0       -0.010283   -0.796429    1.488194
     11          6           0       -1.489484   -0.591000    1.870462
     12          6           0       -2.506482   -0.768365    0.761403
     13          6           0       -2.584869   -1.966861    0.036531
     14          6           0       -3.544257   -2.137409   -0.961375
     15          6           0       -4.447384   -1.111139   -1.251854
     16          6           0       -4.382095    0.084909   -0.536033
     17          6           0       -3.418953    0.251042    0.461926
     18          8           0        1.678505   -1.676817   -1.302065
     19          8           0        2.989122   -2.426430    0.726486
     20          1           0        3.958152   -0.009650   -1.697456
     21          1           0        4.626626   -1.666971   -1.509314
     22          1           0        4.853088   -0.459576   -0.207986
     23          1           0        2.656503    0.124759    1.409276
     24          1           0       -0.995565    0.529703   -0.720994
     25          1           0        0.586747    0.383037   -1.561070
     26          1           0       -0.245309    1.861739    1.997880
     27          1           0        1.530504    2.081616    1.875012
     28          1           0        0.562917   -0.940059    2.409895
     29          1           0        0.086588   -1.722271    0.913201
     30          1           0       -1.631129    0.391186    2.332229
     31          1           0       -1.704229   -1.321390    2.659236
     32          1           0       -1.890157   -2.772311    0.256586
     33          1           0       -3.589258   -3.072350   -1.510761
     34          1           0       -5.194414   -1.244309   -2.028441
     35          1           0       -5.078618    0.889254   -0.751859
     36          1           0       -3.368518    1.183103    1.016512
 ---------------------------------------------------------------------

 SCF Done:  E(RHF) =  -1613.18873041     A.U. after   16 cycles
 E2 =    -0.2990458541D+01 EUMP2 =    -0.16161791889481D+04

 The electronic state is 1-A.
 Alpha  occ. eigenvalues --  -92.23981 -92.19770 -20.57486 -20.57251 -20.55823
 Alpha  occ. eigenvalues --  -20.55709 -15.63515 -11.34410 -11.30113 -11.29960
 Alpha  occ. eigenvalues --  -11.28561 -11.26451 -11.26131 -11.25903 -11.25060
 Alpha  occ. eigenvalues --  -11.24984 -11.24745 -11.24712 -11.24685  -9.20854
 Alpha  occ. eigenvalues --   -9.17040  -6.89379  -6.89335  -6.89221  -6.85529
 Alpha  occ. eigenvalues --   -6.85436  -6.85365  -1.47167  -1.43926  -1.35006
 Alpha  occ. eigenvalues --   -1.32649  -1.27609  -1.16851  -1.14967  -1.08413
 Alpha  occ. eigenvalues --   -1.05648  -1.02358  -1.01482  -0.98572  -0.93150
 Alpha  occ. eigenvalues --   -0.87521  -0.84087  -0.83303  -0.80531  -0.78698
 Alpha  occ. eigenvalues --   -0.74116  -0.71407  -0.70685  -0.69537  -0.68424
 Alpha  occ. eigenvalues --   -0.67186  -0.66527  -0.64937  -0.64190  -0.63619
 Alpha  occ. eigenvalues --   -0.62190  -0.61955  -0.61226  -0.60770  -0.59540
 Alpha  occ. eigenvalues --   -0.59070  -0.58493  -0.57950  -0.56081  -0.53866
 Alpha  occ. eigenvalues --   -0.52832  -0.51474  -0.50880  -0.49891  -0.49378
 Alpha  occ. eigenvalues --   -0.49229  -0.48595  -0.48473  -0.47886  -0.46901
 Alpha  occ. eigenvalues --   -0.46047  -0.43362  -0.42639  -0.34410  -0.33585
 Alpha virt. eigenvalues --    0.02283   0.03289   0.03566   0.04140   0.04479
 Alpha virt. eigenvalues --    0.05061   0.05524   0.05904   0.06089   0.06556
 Alpha virt. eigenvalues --    0.07265   0.07478   0.07900   0.08440   0.09392

 Mulliken charges:
               1
     1  C    0.254377
     2  S    2.564809
     3  N   -1.266012
     4  C    0.154416
     5  C    0.164794
     6  S    2.910278
     7  C    0.540808
     8  O   -1.278156
     9  O   -1.247377
    10  C    0.780878
    11  C    0.244644
    12  C    0.861123
    13  C    0.620459
    14  C    0.049858
    15  C    0.774743
    16  C    0.083579
    17  C    0.688198
    18  O   -1.240849
    19  O   -1.171727
    20  H    0.021853
    21  H    0.038847
    22  H    0.002393
    23  H   -0.046883
    24  H   -0.286711
    25  H   -0.318351
    26  H   -0.239621
    27  H   -0.304576
    28  H   -0.031627
    29  H   -0.088317
    30  H   -0.249610
    31  H   -0.109166
    32  H   -0.725042
    33  H   -0.497706
    34  H   -0.448682
    35  H   -0.468552
    36  H   -0.737093
 Sum of Mulliken charges =  -0.00000

 Dipole moment (field-independent basis, Debye):
    X=              1.4829    Y=             -2.0163    Z=              3.0964  Tot=              3.9815
 Quadrupole moment (field-independent basis, Debye-Ang):
   XX=           -113.0051   YY=           -159.4864   ZZ=           -122.4213
   XY=              4.9354   XZ=              2.1380   YZ=             12.1296

 Normal termination of Gaussian 16 at Tue Sep 22 03:04:16 2020.
