 Gaussian 16, Revision B.01,

 ----------------------------------------------------------------------
 #p b3lyp/6-31G(d) opt freq NoSymm scf=(MaxCycle=2000,NoVarAcc,NoIncFoc
 k) scrf=(iefpcm,read,solvent=water)
 ----------------------------------------------------------------------

 -------------------
 SM38_m0.n.9.pdb.xyz
 -------------------
 Symbolic Z-matrix:
 Charge =  0 Multiplicity = 1

 SCF Done:  E(RB3LYP) =  -1619.41478802     A.U. after   13 cycles
 SCF Done:  E(RB3LYP) =  -1619.41397380     A.U. after   11 cycles
 SCF Done:  E(RB3LYP) =  -1619.41474222     A.U. after   10 cycles
 SCF Done:  E(RB3LYP) =  -1619.41482219     A.U. after   10 cycles
 SCF Done:  E(RB3LYP) =  -1619.41488652     A.U. after    9 cycles
 SCF Done:  E(RB3LYP) =  -1619.41487221     A.U. after    8 cycles
 SCF Done:  E(RB3LYP) =  -1619.41485240     A.U. after   10 cycles
 SCF Done:  E(RB3LYP) =  -1619.41488268     A.U. after    9 cycles
 SCF Done:  E(RB3LYP) =  -1619.41488810     A.U. after    8 cycles
 SCF Done:  E(RB3LYP) =  -1619.41488315     A.U. after    9 cycles
 SCF Done:  E(RB3LYP) =  -1619.41489931     A.U. after    9 cycles
 SCF Done:  E(RB3LYP) =  -1619.41455169     A.U. after   10 cycles
 SCF Done:  E(RB3LYP) =  -1619.41473981     A.U. after   10 cycles
 SCF Done:  E(RB3LYP) =  -1619.41486149     A.U. after   10 cycles
 SCF Done:  E(RB3LYP) =  -1619.41487399     A.U. after   10 cycles
 SCF Done:  E(RB3LYP) =  -1619.41489828     A.U. after    9 cycles
 Optimization completed.
    -- Stationary point found.
 Normal termination of Gaussian 16 at Mon Sep 21 08:01:03 2020.

 --------------------------------------------------------------------
 #P Geom=AllCheck Guess=TCheck SCRF=Check GenChk RB3LYP/6-31G(d) Freq
 --------------------------------------------------------------------

 Structure from the checkpoint file:  "SM38_m0.n.9.pdb.xyz.mst.n.w.chk"
 -------------------
 SM38_m0.n.9.pdb.xyz
 -------------------
 Charge =  0 Multiplicity = 1

 SCF Done:  E(RB3LYP) =  -1619.41489828     A.U. after    1 cycles

  Exact polarizability: 226.953 -25.459 232.361  24.702  19.525 215.373
 Approx polarizability: 253.104 -28.579 259.426  25.524  24.845 256.879

                      1                      2                      3
                      A                      A                      A
 Frequencies --     13.5096                30.9593                45.6337
 Red. masses --      6.2455                 5.3340                 6.9228
 Frc consts  --      0.0007                 0.0030                 0.0085
 IR Inten    --     10.1848                 0.0768                 1.1330

                      4                      5                      6
                      A                      A                      A
 Frequencies --     53.5118                69.3123               106.0715
 Red. masses --      6.8724                 4.4063                 4.9771
 Frc consts  --      0.0116                 0.0125                 0.0330
 IR Inten    --      4.5035                 0.1934                 5.8601

                      7                      8                      9
                      A                      A                      A
 Frequencies --    127.9397               138.6417               181.1550
 Red. masses --      5.3649                 5.5136                 6.0244
 Frc consts  --      0.0517                 0.0624                 0.1165
 IR Inten    --      1.1553                 3.0537                24.0744

                     10                     11                     12
                      A                      A                      A
 Frequencies --    199.5869               209.0350               227.5838
 Red. masses --      4.4289                 1.1148                 4.3148
 Frc consts  --      0.1039                 0.0287                 0.1317
 IR Inten    --      0.6036                 1.1189                 0.4873

                     13                     14                     15
                      A                      A                      A
 Frequencies --    265.2279               274.3588               308.7435
 Red. masses --      5.2682                 3.2716                 3.7727
 Frc consts  --      0.2183                 0.1451                 0.2119
 IR Inten    --      5.7246                 3.5461                 5.4921

                     16                     17                     18
                      A                      A                      A
 Frequencies --    323.4521               331.1326               352.4599
 Red. masses --      3.1573                 3.9761                 2.2475
 Frc consts  --      0.1946                 0.2569                 0.1645
 IR Inten    --      5.2785                 9.2022                13.0952

                     19                     20                     21
                      A                      A                      A
 Frequencies --    390.9409               412.3075               423.2092
 Red. masses --      2.9488                 4.0456                 2.7176
 Frc consts  --      0.2655                 0.4052                 0.2868
 IR Inten    --     23.4971                42.9382                37.2931

                     22                     23                     24
                      A                      A                      A
 Frequencies --    425.7339               442.6393               471.5101
 Red. masses --      3.0584                 3.1721                 4.2489
 Frc consts  --      0.3266                 0.3662                 0.5566
 IR Inten    --      4.6555                11.8639                54.7002

                     25                     26                     27
                      A                      A                      A
 Frequencies --    479.0968               509.1363               539.6064
 Red. masses --      5.1667                 3.7648                 4.7896
 Frc consts  --      0.6987                 0.5750                 0.8217
 IR Inten    --      4.5881                12.6177                57.8059

                     28                     29                     30
                      A                      A                      A
 Frequencies --    574.5904               584.5213               635.0780
 Red. masses --      5.2726                 3.1742                 6.2443
 Frc consts  --      1.0256                 0.6390                 1.4839
 IR Inten    --     82.1721                87.6258                 0.3899

                     31                     32                     33
                      A                      A                      A
 Frequencies --    644.5099               716.1083               722.0198
 Red. masses --      3.4021                 2.9969                 2.2329
 Frc consts  --      0.8326                 0.9055                 0.6858
 IR Inten    --     39.5916                38.9306                28.2574

                     34                     35                     36
                      A                      A                      A
 Frequencies --    755.1662               759.1637               770.8000
 Red. masses --      5.4621                 1.8269                 3.6706
 Frc consts  --      1.8353                 0.6203                 1.2849
 IR Inten    --     74.1520                45.9865                68.5662

                     37                     38                     39
                      A                      A                      A
 Frequencies --    781.8190               796.4354               822.6064
 Red. masses --      2.5089                 2.8293                 2.4230
 Frc consts  --      0.9035                 1.0574                 0.9660
 IR Inten    --     36.5534                11.2287                86.3616

                     40                     41                     42
                      A                      A                      A
 Frequencies --    844.1817               874.7242               880.0491
 Red. masses --      1.7031                 1.2807                 2.3043
 Frc consts  --      0.7151                 0.5774                 1.0515
 IR Inten    --     19.8011                 1.9150                 9.6029

                     43                     44                     45
                      A                      A                      A
 Frequencies --    920.0495               943.8822               973.6833
 Red. masses --      2.2457                 1.5814                 1.8147
 Frc consts  --      1.1200                 0.8301                 1.0137
 IR Inten    --     21.8542                10.0039                13.5974

                     46                     47                     48
                      A                      A                      A
 Frequencies --    985.3937               995.2430              1000.9835
 Red. masses --      1.3420                 1.3811                 1.6061
 Frc consts  --      0.7677                 0.8060                 0.9482
 IR Inten    --      0.9526                22.7631               133.8698

                     49                     50                     51
                      A                      A                      A
 Frequencies --   1009.7808              1011.5457              1017.3305
 Red. masses --      1.7586                 1.3418                 5.2750
 Frc consts  --      1.0565                 0.8089                 3.2166
 IR Inten    --      5.3199                 1.8684                 1.2480

                     52                     53                     54
                      A                      A                      A
 Frequencies --   1030.0519              1049.8757              1061.2424
 Red. masses --      1.7607                 1.3216                 2.1612
 Frc consts  --      1.1007                 0.8583                 1.4341
 IR Inten    --     26.1790                12.8866                 4.5441

                     55                     56                     57
                      A                      A                      A
 Frequencies --   1074.1391              1079.8827              1110.3658
 Red. masses --      3.4314                 2.4890                 4.0490
 Frc consts  --      2.3326                 1.7101                 2.9412
 IR Inten    --    156.3490                33.8659               298.9751

                     58                     59                     60
                      A                      A                      A
 Frequencies --   1113.2474              1155.1994              1187.1906
 Red. masses --      2.4978                 2.1180                 1.0897
 Frc consts  --      1.8239                 1.6653                 0.9049
 IR Inten    --    113.5525                 4.2478                 0.3264

                     61                     62                     63
                      A                      A                      A
 Frequencies --   1191.7738              1211.8961              1218.1771
 Red. masses --      1.3704                 1.4211                 1.4041
 Frc consts  --      1.1468                 1.2297                 1.2276
 IR Inten    --     17.2903                32.0863                20.2397

                     64                     65                     66
                      A                      A                      A
 Frequencies --   1234.0562              1250.2664              1260.5555
 Red. masses --      2.0114                 2.1827                 6.7318
 Frc consts  --      1.8047                 2.0103                 6.3024
 IR Inten    --      2.6558               113.3087               357.3463

                     67                     68                     69
                      A                      A                      A
 Frequencies --   1266.7761              1283.2448              1301.8309
 Red. masses --      4.1519                 1.9263                 1.4711
 Frc consts  --      3.9255                 1.8689                 1.4689
 IR Inten    --    312.8167                64.6915                52.8437

                     70                     71                     72
                      A                      A                      A
 Frequencies --   1356.6590              1371.1927              1379.9812
 Red. masses --      3.9453                 1.4052                 1.2051
 Frc consts  --      4.2783                 1.5567                 1.3521
 IR Inten    --      2.4005                 3.2805                14.4567

                     73                     74                     75
                      A                      A                      A
 Frequencies --   1390.0591              1400.1458              1464.0325
 Red. masses --      1.4121                 1.3889                 1.0675
 Frc consts  --      1.6076                 1.6043                 1.3481
 IR Inten    --     11.8602                21.2060                 4.8357

                     76                     77                     78
                      A                      A                      A
 Frequencies --   1466.7060              1470.7997              1484.4453
 Red. masses --      1.0824                 1.0498                 1.0937
 Frc consts  --      1.3719                 1.3381                 1.4200
 IR Inten    --     24.8624                26.4296                17.9534

                     79                     80                     81
                      A                      A                      A
 Frequencies --   1496.7463              1498.2226              1504.4058
 Red. masses --      1.1632                 1.8055                 1.1906
 Frc consts  --      1.5353                 2.3878                 1.5877
 IR Inten    --     16.7006                10.6574                27.1837

                     82                     83                     84
                      A                      A                      A
 Frequencies --   1536.2450              1549.5202              1642.1097
 Red. masses --      1.1859                 1.9546                 5.4223
 Frc consts  --      1.6490                 2.7651                 8.6147
 IR Inten    --     36.5548                16.3794                 1.8805

                     85                     86                     87
                      A                      A                      A
 Frequencies --   1663.6192              3065.5884              3074.2989
 Red. masses --      5.5310                 1.0619                 1.0613
 Frc consts  --      9.0191                 5.8796                 5.9099
 IR Inten    --      6.9506                32.1782                35.0235

                     88                     89                     90
                      A                      A                      A
 Frequencies --   3101.8636              3107.7400              3120.1599
 Red. masses --      1.1013                 1.0298                 1.1039
 Frc consts  --      6.2432                 5.8600                 6.3320
 IR Inten    --     38.8691                 0.4668                42.5027

                     91                     92                     93
                      A                      A                      A
 Frequencies --   3139.8911              3149.0257              3192.3704
 Red. masses --      1.0582                 1.0579                 1.0854
 Frc consts  --      6.1468                 6.1808                 6.5170
 IR Inten    --      4.9555                16.4860                 7.4768

                     94                     95                     96
                      A                      A                      A
 Frequencies --   3196.0350              3203.0075              3207.4752
 Red. masses --      1.0870                 1.0905                 1.1075
 Frc consts  --      6.5420                 6.5919                 6.7132
 IR Inten    --     10.3857                31.2274                 0.3967

                     97                     98                     99
                      A                      A                      A
 Frequencies --   3212.1271              3219.5772              3222.1862
 Red. masses --      1.0942                 1.1109                 1.0977
 Frc consts  --      6.6519                 6.7847                 6.7151
 IR Inten    --     75.2295                 6.4850                24.5070

                    100                    101                    102
                      A                      A                      A
 Frequencies --   3224.0750              3225.2156              3515.4681
 Red. masses --      1.1111                 1.1092                 1.0733
 Frc consts  --      6.8049                 6.7979                 7.8155
 IR Inten    --     16.8416                 0.2730                93.3171

 - Thermochemistry -
 -------------------
 Temperature   298.150 Kelvin.  Pressure   1.00000 Atm.
 Atom     1 has atomic number  6 and mass  12.00000

 Molecular mass:   303.05990 amu.
 Principal axes and moments of inertia in atomic units:
                           1         2         3
     Eigenvalues --  4428.053757380.603339643.91594
           X            0.99945  -0.03193   0.00925
           Y            0.03181   0.99940   0.01343
           Z           -0.00967  -0.01313   0.99987
 This molecule is an asymmetric top.
 Rotational symmetry number  1.
 Warning -- assumption of classical behavior for rotation
           may cause significant error
 Rotational temperatures (Kelvin)      0.01956     0.01174     0.00898
 Rotational constants (GHZ):           0.40757     0.24452     0.18714
 Zero-point vibrational energy     755459.3 (Joules/Mol)
                                  180.55910 (Kcal/Mol)
 Warning -- explicit consideration of  29 degrees of freedom as
           vibrations may cause significant error
 Vibrational temperatures:     19.44    44.54    65.66    76.99    99.72
          (Kelvin)            152.61   184.08   199.47   260.64   287.16
                              300.75   327.44   381.60   394.74   444.21
                              465.38   476.43   507.11   562.48   593.22
                              608.90   612.54   636.86   678.40   689.31
                              732.53   776.37   826.71   841.00   913.74
                              927.31  1030.32  1038.83  1086.52  1092.27
                             1109.01  1124.86  1145.89  1183.55  1214.59
                             1258.53  1266.19  1323.75  1358.04  1400.91
                             1417.76  1431.93  1440.19  1452.85  1455.39
                             1463.71  1482.01  1510.54  1526.89  1545.45
                             1553.71  1597.57  1601.71  1662.07  1708.10
                             1714.70  1743.65  1752.69  1775.53  1798.85
                             1813.66  1822.61  1846.30  1873.04  1951.93
                             1972.84  1985.49  1999.99  2014.50  2106.42
                             2110.26  2116.15  2135.79  2153.48  2155.61
                             2164.50  2210.31  2229.41  2362.63  2393.58
                             4410.70  4423.23  4462.89  4471.34  4489.21
                             4517.60  4530.75  4593.11  4598.38  4608.41
                             4614.84  4621.53  4632.25  4636.01  4638.72
                             4640.37  5057.97

 Zero-point correction=                           0.287739 (Hartree/Particle)
 Thermal correction to Energy=                    0.306260
 Thermal correction to Enthalpy=                  0.307204
 Thermal correction to Gibbs Free Energy=         0.239135
 Sum of electronic and zero-point Energies=          -1619.127159
 Sum of electronic and thermal Energies=             -1619.108638
 Sum of electronic and thermal Enthalpies=           -1619.107694
 Sum of electronic and thermal Free Energies=        -1619.175763

                     E (Thermal)             CV                S
                      KCal/Mol        Cal/Mol-Kelvin    Cal/Mol-Kelvin
 Total                  192.181             71.502            143.264
 Electronic               0.000              0.000              0.000
 Translational            0.889              2.981             43.023
 Rotational               0.889              2.981             34.110
 Vibrational            190.404             65.540             66.131
 Vibration     1          0.593              1.987              7.413
 Vibration     2          0.594              1.984              5.767
 Vibration     3          0.595              1.979              4.998
 Vibration     4          0.596              1.976              4.683
 Vibration     5          0.598              1.969              4.173
 Vibration     6          0.605              1.944              3.340
 Vibration     7          0.611              1.925              2.977
 Vibration     8          0.614              1.915              2.823
 Vibration     9          0.630              1.865              2.316
 Vibration    10          0.638              1.840              2.137
 Vibration    11          0.642              1.827              2.052
 Vibration    12          0.651              1.799              1.898
 Vibration    13          0.671              1.737              1.627
 Vibration    14          0.677              1.721              1.569
 Vibration    15          0.698              1.657              1.369
 Vibration    16          0.708              1.629              1.293
 Vibration    17          0.713              1.613              1.255
 Vibration    18          0.729              1.570              1.155
 Vibration    19          0.759              1.490              0.997
 Vibration    20          0.776              1.444              0.918
 Vibration    21          0.785              1.420              0.881
 Vibration    22          0.788              1.414              0.873
 Vibration    23          0.802              1.377              0.818
 Vibration    24          0.828              1.313              0.733
 Vibration    25          0.836              1.296              0.713
 Vibration    26          0.864              1.230              0.636
 Vibration    27          0.895              1.162              0.566
 Vibration    28          0.931              1.086              0.495
 Vibration    29          0.941              1.065              0.477

                           ! Non-Optimized Parameters !
 Normal termination of Gaussian 16 at Mon Sep 21 08:15:23 2020.

 ----------------------------------------------------------------------
 #p b3lyp/6-31G(d) scrf=(iefpcm,read,solvent=water) geom=allcheck guess
 =read
 ----------------------------------------------------------------------

 Structure from the checkpoint file:  "SM38_m0.n.9.pdb.xyz.mst.n.w.chk"
 -------------------
 SM38_m0.n.9.pdb.xyz
 -------------------
 Charge =  0 Multiplicity = 1

 SCF Done:  E(RB3LYP) =  -1619.41490241     A.U. after    6 cycles
 Normal termination of Gaussian 16 at Mon Sep 21 08:16:13 2020.

 -----------------------------
 #p B3LYP/6-31G* geom=allcheck
 -----------------------------

 Structure from the checkpoint file:  "SM38_m0.n.9.pdb.xyz.mst.n.w.chk"
 -------------------
 SM38_m0.n.9.pdb.xyz
 -------------------
 Charge =  0 Multiplicity = 1

 SCF Done:  E(RB3LYP) =  -1619.38113677     A.U. after   15 cycles
 Normal termination of Gaussian 16 at Mon Sep 21 08:17:25 2020.
 Gaussian 16:  ES64L-G16RevB.01 20-Dec-2017

 ----------------------------------------------------------------------
 #p mp2/aug-cc-pVDZ scf=(MaxCycle=2000,NoVarAcc,NoIncFock) maxdisk=120G
 B geom=allcheck
 ----------------------------------------------------------------------

 Structure from the checkpoint file:  "SM38_m0.n.9.pdb.xyz.mst.n.w.chk"
 -------------------
 SM38_m0.n.9.pdb.xyz
 -------------------
 Charge =  0 Multiplicity = 1

                         Standard orientation:
 ---------------------------------------------------------------------
 Center     Atomic      Atomic             Coordinates (Angstroms)
 Number     Number       Type             X           Y           Z
 ---------------------------------------------------------------------
      1          6           0        2.805537   -3.071479    0.179133
      2         16           0        2.515668   -1.367667   -0.287328
      3          7           0        1.211833   -1.006930    0.737827
      4          6           0        0.563043    0.318052    0.743774
      5          6           0       -0.026314    0.814005   -0.631536
      6         16           0        0.732837    2.447257   -0.354907
      7          6           0        1.563061    1.499457    0.959549
      8          8           0        1.632535    2.898739   -1.434588
      9          8           0       -0.236911    3.418249    0.196890
     10          6           0       -0.471522    0.324048    1.887492
     11          6           0       -1.541413   -0.786476    1.910646
     12          6           0       -2.536892   -0.784760    0.768816
     13          6           0       -2.532935   -1.803138   -0.192466
     14          6           0       -3.450343   -1.801933   -1.245855
     15          6           0       -4.392379   -0.778188   -1.352200
     16          6           0       -4.413923    0.239437   -0.394253
     17          6           0       -3.497264    0.232069    0.656971
     18          8           0        3.661317   -0.539544    0.130392
     19          8           0        2.141386   -1.320633   -1.715723
     20          1           0        3.024549   -3.113224    1.244514
     21          1           0        3.664654   -3.400834   -0.406637
     22          1           0        1.929337   -3.667352   -0.072073
     23          1           0        0.513543   -1.738911    0.592375
     24          1           0       -1.110161    0.842624   -0.722332
     25          1           0        0.434628    0.330756   -1.493317
     26          1           0        1.526717    1.975374    1.937988
     27          1           0        2.586562    1.269548    0.671076
     28          1           0       -0.960427    1.303758    1.874080
     29          1           0        0.094247    0.267340    2.822671
     30          1           0       -2.081579   -0.663063    2.855807
     31          1           0       -1.058573   -1.766945    1.974206
     32          1           0       -1.807400   -2.607548   -0.112949
     33          1           0       -3.428729   -2.601447   -1.979538
     34          1           0       -5.107161   -0.774756   -2.169239
     35          1           0       -5.149339    1.035398   -0.462232
     36          1           0       -3.528334    1.023294    1.400363
 ---------------------------------------------------------------------

 SCF Done:  E(RHF) =  -1613.18369335     A.U. after   17 cycles
 E2 =    -0.2992101479D+01 EUMP2 =    -0.16161757948296D+04

 The electronic state is 1-A.
 Alpha  occ. eigenvalues --  -92.24389 -92.18951 -20.57478 -20.57425 -20.55036
 Alpha  occ. eigenvalues --  -20.54851 -15.64190 -11.34185 -11.31149 -11.28329
 Alpha  occ. eigenvalues --  -11.28123 -11.27072 -11.26947 -11.26889 -11.26265
 Alpha  occ. eigenvalues --  -11.26137 -11.26124 -11.25767 -11.25743  -9.21265
 Alpha  occ. eigenvalues --   -9.16231  -6.89761  -6.89742  -6.89657  -6.84722
 Alpha  occ. eigenvalues --   -6.84627  -6.84564  -1.47189  -1.43095  -1.34874
 Alpha  occ. eigenvalues --   -1.31829  -1.27732  -1.17849  -1.15124  -1.09087
 Alpha  occ. eigenvalues --   -1.06516  -1.03531  -1.02134  -0.97569  -0.93569
 Alpha  occ. eigenvalues --   -0.87849  -0.84813  -0.84205  -0.81116  -0.77968
 Alpha  occ. eigenvalues --   -0.74694  -0.72012  -0.70712  -0.69227  -0.67519
 Alpha  occ. eigenvalues --   -0.67134  -0.66712  -0.66022  -0.65029  -0.63512
 Alpha  occ. eigenvalues --   -0.63185  -0.62518  -0.61653  -0.60771  -0.60203
 Alpha  occ. eigenvalues --   -0.59862  -0.59465  -0.57517  -0.55116  -0.54240
 Alpha  occ. eigenvalues --   -0.53314  -0.52292  -0.51120  -0.50573  -0.50390
 Alpha  occ. eigenvalues --   -0.49841  -0.48661  -0.47722  -0.46988  -0.46589
 Alpha  occ. eigenvalues --   -0.45304  -0.44048  -0.41437  -0.35641  -0.34642
 Alpha virt. eigenvalues --    0.01454   0.02838   0.03087   0.03858   0.04362
 Alpha virt. eigenvalues --    0.04491   0.05172   0.05963   0.06315   0.06662
 Alpha virt. eigenvalues --    0.07064   0.07682   0.07769   0.08216   0.08793

 Mulliken charges:
               1
     1  C    0.094408
     2  S    2.887230
     3  N   -1.400768
     4  C   -0.032270
     5  C    0.537859
     6  S    2.907618
     7  C    0.492776
     8  O   -1.234189
     9  O   -1.274351
    10  C    0.573152
    11  C    0.372434
    12  C    0.763428
    13  C    0.745021
    14  C    0.062672
    15  C    0.717715
    16  C    0.163088
    17  C    0.509044
    18  O   -1.195981
    19  O   -1.214702
    20  H    0.063698
    21  H    0.022810
    22  H   -0.002048
    23  H   -0.050531
    24  H   -0.259774
    25  H   -0.335597
    26  H   -0.229771
    27  H   -0.172373
    28  H   -0.119019
    29  H   -0.143045
    30  H   -0.143550
    31  H   -0.249319
    32  H   -0.740844
    33  H   -0.495146
    34  H   -0.446446
    35  H   -0.481065
    36  H   -0.692167
 Sum of Mulliken charges =  -0.00000

 Dipole moment (field-independent basis, Debye):
    X=             -3.4137    Y=             -8.6702    Z=              4.7440  Tot=             10.4561
 Quadrupole moment (field-independent basis, Debye-Ang):
   XX=           -133.2557   YY=           -135.2837   ZZ=           -130.7577
   XY=            -13.4312   XZ=             12.9075   YZ=              5.9275

 Normal termination of Gaussian 16 at Mon Sep 21 09:37:00 2020.
