 Gaussian 16, Revision B.01,

 ----------------------------------------------------------------------
 #p b3lyp/6-31G(d) opt freq NoSymm scf=(MaxCycle=2000,NoVarAcc,NoIncFoc
 k) scrf=(iefpcm,read,solvent=water)
 ----------------------------------------------------------------------

 -------------------
 SM38_m0.n.5.pdb.xyz
 -------------------
 Symbolic Z-matrix:
 Charge =  0 Multiplicity = 1

 SCF Done:  E(RB3LYP) =  -1619.41266262     A.U. after   13 cycles
 SCF Done:  E(RB3LYP) =  -1619.41205603     A.U. after   11 cycles
 SCF Done:  E(RB3LYP) =  -1619.41256581     A.U. after   10 cycles
 SCF Done:  E(RB3LYP) =  -1619.41264657     A.U. after   10 cycles
 SCF Done:  E(RB3LYP) =  -1619.41266750     A.U. after    9 cycles
 SCF Done:  E(RB3LYP) =  -1619.41257784     A.U. after   10 cycles
 SCF Done:  E(RB3LYP) =  -1619.41253521     A.U. after    9 cycles
 SCF Done:  E(RB3LYP) =  -1619.41266009     A.U. after    9 cycles
 SCF Done:  E(RB3LYP) =  -1619.41266733     A.U. after    8 cycles
 SCF Done:  E(RB3LYP) =  -1619.41256233     A.U. after   10 cycles
 SCF Done:  E(RB3LYP) =  -1619.41266746     A.U. after    9 cycles
 SCF Done:  E(RB3LYP) =  -1619.41266742     A.U. after    4 cycles
 SCF Done:  E(RB3LYP) =  -1619.41266742     A.U. after    2 cycles
 SCF Done:  E(RB3LYP) =  -1619.41266742     A.U. after    3 cycles
 SCF Done:  E(RB3LYP) =  -1619.41261440     A.U. after    9 cycles
 SCF Done:  E(RB3LYP) =  -1619.41261471     A.U. after    7 cycles
 Optimization completed on the basis of negligible forces.
    -- Stationary point found.
 Normal termination of Gaussian 16 at Mon Sep 21 08:34:15 2020.

 --------------------------------------------------------------------
 #P Geom=AllCheck Guess=TCheck SCRF=Check GenChk RB3LYP/6-31G(d) Freq
 --------------------------------------------------------------------

 Structure from the checkpoint file:  "SM38_m0.n.5.pdb.xyz.mst.n.w.chk"
 -------------------
 SM38_m0.n.5.pdb.xyz
 -------------------
 Charge =  0 Multiplicity = 1

 SCF Done:  E(RB3LYP) =  -1619.41261471     A.U. after    1 cycles

  Exact polarizability: 238.353  13.586 239.791 -34.349   3.722 196.839
 Approx polarizability: 258.485  11.180 277.155 -39.542   4.394 232.938

                      1                      2                      3
                      A                      A                      A
 Frequencies --     17.1660                28.2850                39.8580
 Red. masses --      4.9242                 8.2488                 4.8425
 Frc consts  --      0.0009                 0.0039                 0.0045
 IR Inten    --      4.0267                 4.8283                 0.6915

                      4                      5                      6
                      A                      A                      A
 Frequencies --     55.9235                77.0710               106.2856
 Red. masses --      4.8854                 7.3705                 5.7806
 Frc consts  --      0.0090                 0.0258                 0.0385
 IR Inten    --      1.5732                 7.0456                 2.2795

                      7                      8                      9
                      A                      A                      A
 Frequencies --    125.3136               149.5213               187.9098
 Red. masses --      4.9883                 6.4465                 4.6313
 Frc consts  --      0.0462                 0.0849                 0.0964
 IR Inten    --      8.7526                 1.6181                 2.6461

                     10                     11                     12
                      A                      A                      A
 Frequencies --    195.4810               221.5991               228.1762
 Red. masses --      7.2309                 1.2580                 2.4916
 Frc consts  --      0.1628                 0.0364                 0.0764
 IR Inten    --     23.3241                 0.2356                 1.3468

                     13                     14                     15
                      A                      A                      A
 Frequencies --    235.5855               280.4757               299.3410
 Red. masses --      4.1942                 4.0225                 2.6306
 Frc consts  --      0.1372                 0.1864                 0.1389
 IR Inten    --      1.3431                 8.1337                 3.3719

                     16                     17                     18
                      A                      A                      A
 Frequencies --    328.4391               336.9005               361.9716
 Red. masses --      3.2644                 2.7943                 2.8635
 Frc consts  --      0.2075                 0.1869                 0.2211
 IR Inten    --     12.0893                 1.6948                 7.0821

                     19                     20                     21
                      A                      A                      A
 Frequencies --    379.3268               398.6230               401.3611
 Red. masses --      4.5190                 3.2902                 2.9834
 Frc consts  --      0.3831                 0.3080                 0.2832
 IR Inten    --     55.4161                16.3462                10.5206

                     22                     23                     24
                      A                      A                      A
 Frequencies --    420.0404               459.2937               464.8997
 Red. masses --      2.9804                 4.1684                 3.1031
 Frc consts  --      0.3098                 0.5181                 0.3952
 IR Inten    --      0.0562                36.0771                60.1453

                     25                     26                     27
                      A                      A                      A
 Frequencies --    483.3534               511.8875               535.1535
 Red. masses --      4.2372                 4.2638                 4.7506
 Frc consts  --      0.5833                 0.6583                 0.8016
 IR Inten    --      8.8976                 9.8976                69.0419

                     28                     29                     30
                      A                      A                      A
 Frequencies --    567.3424               575.0510               633.1035
 Red. masses --      3.8042                 4.4595                 6.2624
 Frc consts  --      0.7214                 0.8689                 1.4789
 IR Inten    --     15.5375                94.1061                 3.9810

                     31                     32                     33
                      A                      A                      A
 Frequencies --    648.3484               700.2540               715.0893
 Red. masses --      3.3657                 3.2149                 2.1428
 Frc consts  --      0.8336                 0.9288                 0.6456
 IR Inten    --     79.3481                43.9384                38.5508

                     34                     35                     36
                      A                      A                      A
 Frequencies --    754.1987               755.3303               766.2693
 Red. masses --      1.7078                 5.9860                 4.2687
 Frc consts  --      0.5723                 2.0121                 1.4768
 IR Inten    --     83.0220                72.3711                69.5838

                     37                     38                     39
                      A                      A                      A
 Frequencies --    779.0407               808.7963               813.9653
 Red. masses --      2.4671                 2.0255                 2.6377
 Frc consts  --      0.8822                 0.7807                 1.0296
 IR Inten    --     10.2125                20.6057                 3.9417

                     40                     41                     42
                      A                      A                      A
 Frequencies --    833.5931               866.7775               885.3439
 Red. masses --      2.5053                 1.2515                 2.4047
 Frc consts  --      1.0257                 0.5540                 1.1106
 IR Inten    --     57.2564                 0.2084                61.7593

                     43                     44                     45
                      A                      A                      A
 Frequencies --    909.1684               922.0808               955.2711
 Red. masses --      2.0123                 1.6718                 1.9071
 Frc consts  --      0.9800                 0.8375                 1.0254
 IR Inten    --     13.1194                33.5618                19.5114

                     46                     47                     48
                      A                      A                      A
 Frequencies --    980.0267               998.0342              1005.9111
 Red. masses --      1.3561                 1.4073                 1.2596
 Frc consts  --      0.7674                 0.8259                 0.7509
 IR Inten    --      0.2346                51.5146                 0.6802

                     49                     50                     51
                      A                      A                      A
 Frequencies --   1011.0589              1012.2025              1016.3168
 Red. masses --      1.5817                 1.5949                 5.7452
 Frc consts  --      0.9526                 0.9628                 3.4963
 IR Inten    --      2.5473                61.6036                 0.0833

                     52                     53                     54
                      A                      A                      A
 Frequencies --   1040.8156              1057.8256              1058.9066
 Red. masses --      2.3192                 1.4808                 1.6344
 Frc consts  --      1.4803                 0.9763                 1.0797
 IR Inten    --     32.7705                18.8963                 8.8550

                     55                     56                     57
                      A                      A                      A
 Frequencies --   1067.4267              1082.1363              1109.1102
 Red. masses --      2.4825                 3.2409                 9.7675
 Frc consts  --      1.6665                 2.2360                 7.0792
 IR Inten    --     40.1741                81.7727               449.6340

                     58                     59                     60
                      A                      A                      A
 Frequencies --   1120.3157              1164.9495              1185.5880
 Red. masses --      1.8025                 2.7010                 1.0956
 Frc consts  --      1.3329                 2.1597                 0.9073
 IR Inten    --      8.2992                12.1513                 0.0822

                     61                     62                     63
                      A                      A                      A
 Frequencies --   1195.0676              1207.6794              1219.2082
 Red. masses --      1.3588                 1.1495                 2.1085
 Frc consts  --      1.1433                 0.9878                 1.8466
 IR Inten    --     11.8635                 0.5834                23.5290

                     64                     65                     66
                      A                      A                      A
 Frequencies --   1227.7507              1235.4993              1255.1568
 Red. masses --      1.8273                 1.6095                 5.8043
 Frc consts  --      1.6228                 1.4475                 5.3876
 IR Inten    --    146.9754                19.4597               327.9300

                     67                     68                     69
                      A                      A                      A
 Frequencies --   1271.7233              1277.7185              1299.5846
 Red. masses --      6.6136                 1.8326                 1.3513
 Frc consts  --      6.3019                 1.7627                 1.3447
 IR Inten    --    309.1849                91.5334                59.9308

                     70                     71                     72
                      A                      A                      A
 Frequencies --   1345.0844              1363.9885              1384.4742
 Red. masses --      2.2084                 2.0982                 1.2073
 Frc consts  --      2.3541                 2.3000                 1.3634
 IR Inten    --      5.7983                 0.7659                15.9631

                     73                     74                     75
                      A                      A                      A
 Frequencies --   1389.8405              1402.6689              1456.1503
 Red. masses --      1.4030                 1.4104                 1.0900
 Frc consts  --      1.5967                 1.6349                 1.3617
 IR Inten    --      4.1446                15.8063                22.7256

                     76                     77                     78
                      A                      A                      A
 Frequencies --   1464.6786              1468.5849              1470.3638
 Red. masses --      1.0707                 1.0569                 1.0686
 Frc consts  --      1.3533                 1.3430                 1.3612
 IR Inten    --     23.5886                12.4155                19.2750

                     79                     80                     81
                      A                      A                      A
 Frequencies --   1495.4509              1503.2090              1506.7784
 Red. masses --      1.6518                 1.2877                 1.0959
 Frc consts  --      2.1765                 1.7143                 1.4660
 IR Inten    --      2.8464                14.1864                19.2623

                     82                     83                     84
                      A                      A                      A
 Frequencies --   1519.3669              1543.9371              1641.3610
 Red. masses --      1.1661                 2.2046                 5.4440
 Frc consts  --      1.5860                 3.0963                 8.6413
 IR Inten    --     53.2810                15.5516                 1.6850

                     85                     86                     87
                      A                      A                      A
 Frequencies --   1662.0934              3055.3232              3070.4961
 Red. masses --      5.6463                 1.0672                 1.0637
 Frc consts  --      9.1902                 5.8695                 5.9087
 IR Inten    --      8.5780                21.8235                54.0149

                     88                     89                     90
                      A                      A                      A
 Frequencies --   3104.6051              3106.5468              3122.0639
 Red. masses --      1.0978                 1.0298                 1.0985
 Frc consts  --      6.2345                 5.8552                 6.3084
 IR Inten    --     17.5991                 0.2871                38.2878

                     91                     92                     93
                      A                      A                      A
 Frequencies --   3136.7679              3159.7337              3197.1216
 Red. masses --      1.0580                 1.0573                 1.0854
 Frc consts  --      6.1331                 6.2192                 6.5370
 IR Inten    --      6.5812                 4.7137                13.0633

                     94                     95                     96
                      A                      A                      A
 Frequencies --   3201.2754              3205.1352              3210.7955
 Red. masses --      1.0871                 1.1069                 1.1111
 Frc consts  --      6.5640                 6.6995                 6.7489
 IR Inten    --      1.0729                 0.2780                 6.4695

                     97                     98                     99
                      A                      A                      A
 Frequencies --   3211.8578              3215.0671              3223.7404
 Red. masses --      1.0917                 1.0936                 1.1085
 Frc consts  --      6.6353                 6.6605                 6.7877
 IR Inten    --     32.2898                56.1551                 0.1251

                    100                    101                    102
                      A                      A                      A
 Frequencies --   3229.1312              3235.9641              3491.7803
 Red. masses --      1.0970                 1.1111                 1.0753
 Frc consts  --      6.7397                 6.8552                 7.7248
 IR Inten    --     34.9195                21.9717                95.3002

 - Thermochemistry -
 -------------------
 Temperature   298.150 Kelvin.  Pressure   1.00000 Atm.
 Atom     1 has atomic number  6 and mass  12.00000

 Molecular mass:   303.05990 amu.
 Principal axes and moments of inertia in atomic units:
                           1         2         3
     Eigenvalues --  3273.629749161.86737**********
           X            0.99999   0.00486   0.00246
           Y           -0.00486   0.99999  -0.00061
           Z           -0.00246   0.00060   1.00000
 This molecule is an asymmetric top.
 Rotational symmetry number  1.
 Warning -- assumption of classical behavior for rotation
           may cause significant error
 Rotational temperatures (Kelvin)      0.02646     0.00945     0.00810
 Rotational constants (GHZ):           0.55130     0.19698     0.16870
 Zero-point vibrational energy     754327.5 (Joules/Mol)
                                  180.28861 (Kcal/Mol)
 Warning -- explicit consideration of  29 degrees of freedom as
           vibrations may cause significant error
 Vibrational temperatures:     24.70    40.70    57.35    80.46   110.89
          (Kelvin)            152.92   180.30   215.13   270.36   281.25
                              318.83   328.29   338.95   403.54   430.68
                              472.55   484.72   520.80   545.77   573.53
                              577.47   604.34   660.82   668.89   695.44
                              736.49   769.97   816.28   827.37   910.89
                              932.83  1007.51  1028.85  1085.12  1086.75
                             1102.49  1120.87  1163.68  1171.11  1199.35
                             1247.10  1273.81  1308.09  1326.67  1374.42
                             1410.04  1435.95  1447.28  1454.69  1456.33
                             1462.25  1497.50  1521.98  1523.53  1535.79
                             1556.95  1595.76  1611.88  1676.10  1705.80
                             1719.44  1737.58  1754.17  1766.46  1777.61
                             1805.89  1829.73  1838.35  1869.81  1935.28
                             1962.48  1991.95  1999.67  2018.13  2095.08
                             2107.35  2112.97  2115.53  2151.62  2162.78
                             2167.92  2186.03  2221.38  2361.55  2391.38
                             4395.93  4417.76  4466.83  4469.63  4491.95
                             4513.11  4546.15  4599.94  4605.92  4611.47
                             4619.62  4621.15  4625.76  4638.24  4646.00
                             4655.83  5023.89

 Zero-point correction=                           0.287308 (Hartree/Particle)
 Thermal correction to Energy=                    0.305874
 Thermal correction to Enthalpy=                  0.306818
 Thermal correction to Gibbs Free Energy=         0.238835
 Sum of electronic and zero-point Energies=          -1619.125307
 Sum of electronic and thermal Energies=             -1619.106741
 Sum of electronic and thermal Enthalpies=           -1619.105797
 Sum of electronic and thermal Free Energies=        -1619.173780

                     E (Thermal)             CV                S
                      KCal/Mol        Cal/Mol-Kelvin    Cal/Mol-Kelvin
 Total                  191.939             71.749            143.083
 Electronic               0.000              0.000              0.000
 Translational            0.889              2.981             43.023
 Rotational               0.889              2.981             34.128
 Vibrational            190.161             65.788             65.932
 Vibration     1          0.593              1.986              6.938
 Vibration     2          0.593              1.984              5.946
 Vibration     3          0.594              1.981              5.266
 Vibration     4          0.596              1.975              4.596
 Vibration     5          0.599              1.964              3.964
 Vibration     6          0.605              1.944              3.336
 Vibration     7          0.610              1.928              3.017
 Vibration     8          0.618              1.903              2.678
 Vibration     9          0.633              1.856              2.248
 Vibration    10          0.636              1.846              2.175
 Vibration    11          0.648              1.808              1.946
 Vibration    12          0.651              1.798              1.893
 Vibration    13          0.655              1.786              1.836
 Vibration    14          0.680              1.710              1.531
 Vibration    15          0.692              1.675              1.421
 Vibration    16          0.712              1.619              1.268
 Vibration    17          0.718              1.602              1.227
 Vibration    18          0.736              1.551              1.114
 Vibration    19          0.749              1.514              1.042
 Vibration    20          0.765              1.473              0.968
 Vibration    21          0.767              1.467              0.958
 Vibration    22          0.783              1.427              0.892
 Vibration    23          0.817              1.340              0.768
 Vibration    24          0.822              1.328              0.752
 Vibration    25          0.840              1.287              0.701
 Vibration    26          0.867              1.224              0.629
 Vibration    27          0.890              1.172              0.576
 Vibration    28          0.923              1.102              0.509
 Vibration    29          0.931              1.085              0.495

 Optimization completed.
    -- Stationary point found.
 Normal termination of Gaussian 16 at Mon Sep 21 08:46:18 2020.

 ----------------------------------------------------------------------
 #p b3lyp/6-31G(d) scrf=(iefpcm,read,solvent=water) geom=allcheck guess
 =read
 ----------------------------------------------------------------------

 Structure from the checkpoint file:  "SM38_m0.n.5.pdb.xyz.mst.n.w.chk"
 -------------------
 SM38_m0.n.5.pdb.xyz
 -------------------
 Charge =  0 Multiplicity = 1

 SCF Done:  E(RB3LYP) =  -1619.41262618     A.U. after    5 cycles
 Normal termination of Gaussian 16 at Mon Sep 21 08:46:49 2020.

 -----------------------------
 #p B3LYP/6-31G* geom=allcheck
 -----------------------------

 Structure from the checkpoint file:  "SM38_m0.n.5.pdb.xyz.mst.n.w.chk"
 -------------------
 SM38_m0.n.5.pdb.xyz
 -------------------
 Charge =  0 Multiplicity = 1

 SCF Done:  E(RB3LYP) =  -1619.37819460     A.U. after   15 cycles
 Normal termination of Gaussian 16 at Mon Sep 21 08:47:38 2020.
 Gaussian 16:  ES64L-G16RevB.01 20-Dec-2017

 ----------------------------------------------------------------------
 #p mp2/aug-cc-pVDZ scf=(MaxCycle=2000,NoVarAcc,NoIncFock) maxdisk=120G
 B geom=allcheck
 ----------------------------------------------------------------------

 Structure from the checkpoint file:  "SM38_m0.n.5.pdb.xyz.mst.n.w.chk"
 -------------------
 SM38_m0.n.5.pdb.xyz
 -------------------
 Charge =  0 Multiplicity = 1

                         Standard orientation:
 ---------------------------------------------------------------------
 Center     Atomic      Atomic             Coordinates (Angstroms)
 Number     Number       Type             X           Y           Z
 ---------------------------------------------------------------------
      1          6           0       -3.942586   -2.369025   -0.507852
      2         16           0       -3.176829   -0.762007   -0.313439
      3          7           0       -1.705438   -1.220718    0.385249
      4          6           0       -0.611177   -0.248630    0.620778
      5          6           0       -1.046746    1.117110    1.273149
      6         16           0       -0.347839    2.036557   -0.138707
      7          6           0       -0.038468    0.331057   -0.716911
      8          8           0       -1.360049    2.759469   -0.934058
      9          8           0        0.895508    2.754558    0.215359
     10          6           0        0.410649   -1.023176    1.482454
     11          6           0        1.775991   -0.356380    1.742977
     12          6           0        2.831593   -0.539730    0.666622
     13          6           0        3.598724    0.550107    0.233553
     14          6           0        4.613848    0.385066   -0.711162
     15          6           0        4.879663   -0.878430   -1.240657
     16          6           0        4.122990   -1.973698   -0.816935
     17          6           0        3.111606   -1.804438    0.128847
     18          8           0       -2.878104   -0.184553   -1.635612
     19          8           0       -4.006729    0.047756    0.602355
     20          1           0       -3.315906   -2.978864   -1.156095
     21          1           0       -4.916102   -2.188455   -0.965506
     22          1           0       -4.067593   -2.829810    0.472606
     23          1           0       -1.923414   -1.724098    1.248853
     24          1           0       -0.557151    1.370422    2.213848
     25          1           0       -2.124858    1.251054    1.344892
     26          1           0        1.019159    0.143691   -0.888362
     27          1           0       -0.640208    0.100565   -1.592637
     28          1           0        0.565023   -1.999637    1.014738
     29          1           0       -0.068591   -1.210347    2.449459
     30          1           0        2.159356   -0.793479    2.672296
     31          1           0        1.655623    0.711332    1.949770
     32          1           0        3.387831    1.535504    0.636139
     33          1           0        5.193521    1.244108   -1.033463
     34          1           0        5.666018   -1.009313   -1.975700
     35          1           0        4.322239   -2.961634   -1.220357
     36          1           0        2.536295   -2.665661    0.453569
 ---------------------------------------------------------------------

 SCF Done:  E(RHF) =  -1613.17911977     A.U. after   16 cycles
 E2 =    -0.2992982726D+01 EUMP2 =    -0.16161721024937D+04

 The electronic state is 1-A.
 Alpha  occ. eigenvalues --  -92.24071 -92.18990 -20.57231 -20.57032 -20.55169
 Alpha  occ. eigenvalues --  -20.54666 -15.64031 -11.34427 -11.30811 -11.28662
 Alpha  occ. eigenvalues --  -11.28032 -11.27446 -11.26068 -11.25913 -11.25169
 Alpha  occ. eigenvalues --  -11.24947 -11.24851 -11.24693 -11.24336  -9.20951
 Alpha  occ. eigenvalues --   -9.16256  -6.89452  -6.89432  -6.89339  -6.84747
 Alpha  occ. eigenvalues --   -6.84652  -6.84588  -1.46927  -1.43067  -1.34582
 Alpha  occ. eigenvalues --   -1.31779  -1.27602  -1.16823  -1.14743  -1.08311
 Alpha  occ. eigenvalues --   -1.06234  -1.02338  -1.01627  -0.97772  -0.93619
 Alpha  occ. eigenvalues --   -0.86557  -0.84470  -0.83438  -0.80399  -0.77806
 Alpha  occ. eigenvalues --   -0.74161  -0.71245  -0.70595  -0.69371  -0.67983
 Alpha  occ. eigenvalues --   -0.67017  -0.66661  -0.65068  -0.63880  -0.63138
 Alpha  occ. eigenvalues --   -0.62793  -0.62257  -0.61617  -0.61186  -0.59645
 Alpha  occ. eigenvalues --   -0.58581  -0.57745  -0.57503  -0.55673  -0.53902
 Alpha  occ. eigenvalues --   -0.52717  -0.51386  -0.50891  -0.49740  -0.49192
 Alpha  occ. eigenvalues --   -0.49142  -0.48531  -0.47643  -0.46663  -0.46467
 Alpha  occ. eigenvalues --   -0.45130  -0.44306  -0.41512  -0.34384  -0.33564
 Alpha virt. eigenvalues --    0.01440   0.02936   0.02985   0.03957   0.04338
 Alpha virt. eigenvalues --    0.04888   0.05007   0.05690   0.05982   0.06467
 Alpha virt. eigenvalues --    0.07003   0.07430   0.08020   0.08811   0.09019

 Mulliken charges:
               1
     1  C    0.156857
     2  S    2.801229
     3  N   -1.400520
     4  C    0.444661
     5  C    0.449390
     6  S    3.027972
     7  C    0.303215
     8  O   -1.252644
     9  O   -1.313208
    10  C    0.831852
    11  C    0.108617
    12  C    0.701330
    13  C    0.632080
    14  C    0.121237
    15  C    0.829268
    16  C    0.008398
    17  C    0.592268
    18  O   -1.200720
    19  O   -1.210431
    20  H    0.039200
    21  H    0.031911
    22  H    0.009063
    23  H    0.040511
    24  H   -0.376515
    25  H   -0.304458
    26  H   -0.350018
    27  H   -0.282115
    28  H   -0.097099
    29  H   -0.152067
    30  H   -0.086339
    31  H   -0.266915
    32  H   -0.684869
    33  H   -0.462988
    34  H   -0.451644
    35  H   -0.503614
    36  H   -0.732893
 Sum of Mulliken charges =  -0.00000

 Dipole moment (field-independent basis, Debye):
    X=              0.8256    Y=             -9.5432    Z=              3.5834  Tot=             10.2272
 Quadrupole moment (field-independent basis, Debye-Ang):
   XX=           -130.5384   YY=           -133.7953   ZZ=           -126.7408
   XY=             18.7166   XZ=             -8.5080   YZ=              4.9978

 Normal termination of Gaussian 16 at Mon Sep 21 09:48:26 2020.
