 Gaussian 16, Revision B.01,

 ----------------------------------------------------------------------
 #p b3lyp/6-31G(d) opt freq NoSymm scf=(MaxCycle=2000,NoVarAcc,NoIncFoc
 k) scrf=(iefpcm,read,solvent=water)
 ----------------------------------------------------------------------

 -------------------
 SM38_m1.a.1.pdb.xyz
 -------------------
 Symbolic Z-matrix:
 Charge = -1 Multiplicity = 1

 SCF Done:  E(RB3LYP) =  -1619.00425400     A.U. after   13 cycles
 SCF Done:  E(RB3LYP) =  -1619.00427028     A.U. after    8 cycles
 SCF Done:  E(RB3LYP) =  -1619.00424921     A.U. after    8 cycles
 SCF Done:  E(RB3LYP) =  -1619.00427064     A.U. after    8 cycles
 SCF Done:  E(RB3LYP) =  -1619.00426445     A.U. after    8 cycles
 Optimization completed.
    -- Stationary point found.
 Normal termination of Gaussian 16 at Tue Sep 22 01:53:14 2020.

 --------------------------------------------------------------------
 #P Geom=AllCheck Guess=TCheck SCRF=Check GenChk RB3LYP/6-31G(d) Freq
 --------------------------------------------------------------------

 Structure from the checkpoint file:  "SM38_m1.a.1.pdb.xyz.mst.a.w.chk"
 -------------------
 SM38_m1.a.1.pdb.xyz
 -------------------
 Charge = -1 Multiplicity = 1

 SCF Done:  E(RB3LYP) =  -1619.00426445     A.U. after    1 cycles

  Exact polarizability: 243.784 -16.771 253.060  32.263  10.450 199.877
 Approx polarizability: 263.572 -18.993 290.560  38.537  11.589 233.683

                      1                      2                      3
                      A                      A                      A
 Frequencies --     18.6676                21.7567                36.9023
 Red. masses --      5.8944                 5.7915                 4.9525
 Frc consts  --      0.0012                 0.0016                 0.0040
 IR Inten    --      0.3047                 7.0440                 3.6518

                      4                      5                      6
                      A                      A                      A
 Frequencies --     42.0337                59.8393               100.1575
 Red. masses --      5.7999                 5.4273                 5.1360
 Frc consts  --      0.0060                 0.0114                 0.0304
 IR Inten    --      6.8993                 1.3488                 2.1971

                      7                      8                      9
                      A                      A                      A
 Frequencies --    132.2268               151.0510               181.5268
 Red. masses --      7.1074                 6.1786                 6.5147
 Frc consts  --      0.0732                 0.0831                 0.1265
 IR Inten    --     10.5608                 3.6453                 5.5496

                     10                     11                     12
                      A                      A                      A
 Frequencies --    207.3822               217.6845               228.7780
 Red. masses --      3.9862                 1.4134                 2.8165
 Frc consts  --      0.1010                 0.0395                 0.0869
 IR Inten    --     13.0332                 4.1838                 2.2824

                     13                     14                     15
                      A                      A                      A
 Frequencies --    234.2493               284.2487               308.2982
 Red. masses --      4.0812                 3.0559                 3.8679
 Frc consts  --      0.1319                 0.1455                 0.2166
 IR Inten    --     15.7679                12.3840                 4.6635

                     16                     17                     18
                      A                      A                      A
 Frequencies --    312.2741               347.4258               368.9576
 Red. masses --      2.9872                 2.3059                 2.6647
 Frc consts  --      0.1716                 0.1640                 0.2137
 IR Inten    --      8.5100                 1.3965                 8.5185

                     19                     20                     21
                      A                      A                      A
 Frequencies --    381.5251               411.3851               418.4918
 Red. masses --      3.9405                 4.0914                 2.9804
 Frc consts  --      0.3379                 0.4080                 0.3075
 IR Inten    --     39.2913                20.8998                 0.3575

                     22                     23                     24
                      A                      A                      A
 Frequencies --    440.7408               450.8615               493.3966
 Red. masses --      3.8723                 4.6050                 4.4878
 Frc consts  --      0.4432                 0.5515                 0.6437
 IR Inten    --     27.3780                25.3904                 9.2305

                     25                     26                     27
                      A                      A                      A
 Frequencies --    502.5186               529.5832               552.1620
 Red. masses --      5.0345                 5.8618                 4.5973
 Frc consts  --      0.7491                 0.9686                 0.8258
 IR Inten    --     58.9418                89.6079                 6.7458

                     28                     29                     30
                      A                      A                      A
 Frequencies --    569.1662               600.9489               634.5700
 Red. masses --      3.9022                 3.7974                 6.3720
 Frc consts  --      0.7448                 0.8080                 1.5118
 IR Inten    --     13.8067                43.8764                 0.3555

                     31                     32                     33
                      A                      A                      A
 Frequencies --    660.1465               715.0534               728.1191
 Red. masses --      3.8474                 2.0779                 4.5504
 Frc consts  --      0.9879                 0.6260                 1.4213
 IR Inten    --     23.8806                32.7960                49.7822

                     34                     35                     36
                      A                      A                      A
 Frequencies --    757.7671               761.1662               771.4678
 Red. masses --      1.9440                 4.6260                 3.3453
 Frc consts  --      0.6577                 1.5791                 1.1731
 IR Inten    --     81.9670                36.4266                46.3055

                     37                     38                     39
                      A                      A                      A
 Frequencies --    779.8452               810.2949               850.9769
 Red. masses --      3.7328                 2.0119                 3.6597
 Frc consts  --      1.3375                 0.7783                 1.5614
 IR Inten    --     69.9574                 4.3392                11.7037

                     40                     41                     42
                      A                      A                      A
 Frequencies --    864.3675               890.1894               914.0917
 Red. masses --      1.2526                 1.7589                 1.9706
 Frc consts  --      0.5514                 0.8212                 0.9701
 IR Inten    --      0.0669                16.4164                 7.3858

                     43                     44                     45
                      A                      A                      A
 Frequencies --    934.8164               975.3095               976.6448
 Red. masses --      1.5530                 2.1717                 1.4159
 Frc consts  --      0.7996                 1.2171                 0.7957
 IR Inten    --     18.6155                75.8068                10.7811

                     46                     47                     48
                      A                      A                      A
 Frequencies --    981.3724               986.8126              1002.5578
 Red. masses --      1.4397                 1.5644                 1.2515
 Frc consts  --      0.8169                 0.8976                 0.7412
 IR Inten    --      1.4396                14.5076                 0.5425

                     49                     50                     51
                      A                      A                      A
 Frequencies --   1009.4607              1015.0490              1037.1253
 Red. masses --      2.3835                 6.1517                 1.5440
 Frc consts  --      1.4310                 3.7344                 0.9785
 IR Inten    --     21.9644                 0.4274               114.2316

                     52                     53                     54
                      A                      A                      A
 Frequencies --   1050.4777              1056.9556              1065.1851
 Red. masses --      2.0897                 2.2948                 4.4529
 Frc consts  --      1.3587                 1.5104                 2.9768
 IR Inten    --     52.7960                32.7311               547.6301

                     55                     56                     57
                      A                      A                      A
 Frequencies --   1078.3754              1083.7566              1116.6655
 Red. masses --      2.3019                 2.6608                 1.9833
 Frc consts  --      1.5772                 1.8413                 1.4571
 IR Inten    --     59.3816               146.6206                46.1545

                     58                     59                     60
                      A                      A                      A
 Frequencies --   1133.4400              1141.5138              1180.9325
 Red. masses --      5.0287                 5.7909                 1.3254
 Frc consts  --      3.8063                 4.4459                 1.0890
 IR Inten    --    506.2933               103.7702                10.3146

                     61                     62                     63
                      A                      A                      A
 Frequencies --   1187.4251              1200.9941              1210.5558
 Red. masses --      1.0946                 1.8273                 1.1691
 Frc consts  --      0.9093                 1.5529                 1.0094
 IR Inten    --      0.4349               278.9392                 2.7890

                     64                     65                     66
                      A                      A                      A
 Frequencies --   1226.4410              1232.2394              1250.9070
 Red. masses --      2.5199                 1.9178                 3.8630
 Frc consts  --      2.2332                 1.7157                 3.5614
 IR Inten    --     41.7066               233.0282               133.6211

                     67                     68                     69
                      A                      A                      A
 Frequencies --   1270.8869              1301.9860              1348.7204
 Red. masses --      1.8946                 1.2059                 3.1827
 Frc consts  --      1.8029                 1.2044                 3.4111
 IR Inten    --     61.1109                 4.5984                 3.4210

                     70                     71                     72
                      A                      A                      A
 Frequencies --   1365.3919              1375.4431              1390.7866
 Red. masses --      1.5267                 1.2176                 1.3861
 Frc consts  --      1.6770                 1.3572                 1.5797
 IR Inten    --      1.3847                11.9691                 8.1615

                     73                     74                     75
                      A                      A                      A
 Frequencies --   1407.2534              1452.3593              1474.4597
 Red. masses --      1.3295                 1.1048                 1.0888
 Frc consts  --      1.5513                 1.3731                 1.3946
 IR Inten    --     15.7210                22.6616                 1.5486

                     76                     77                     78
                      A                      A                      A
 Frequencies --   1476.2070              1482.5509              1497.3356
 Red. masses --      1.0557                 1.0480                 2.0314
 Frc consts  --      1.3555                 1.3572                 2.6834
 IR Inten    --     10.1716                 5.7448                 7.7913

                     79                     80                     81
                      A                      A                      A
 Frequencies --   1502.7538              1513.1194              1542.9865
 Red. masses --      1.0974                 1.1104                 2.1687
 Frc consts  --      1.4602                 1.4978                 3.0422
 IR Inten    --      4.9354                11.8312                18.2598

                     82                     83                     84
                      A                      A                      A
 Frequencies --   1636.8155              1658.2563              3036.7555
 Red. masses --      5.3736                 5.5444                 1.0673
 Frc consts  --      8.4824                 8.9827                 5.7993
 IR Inten    --      1.7530                10.8089                31.6975

                     85                     86                     87
                      A                      A                      A
 Frequencies --   3058.9462              3083.8076              3085.6897
 Red. masses --      1.0642                 1.0967                 1.0305
 Frc consts  --      5.8672                 6.1447                 5.7810
 IR Inten    --     66.6353                41.9820                 5.3238

                     88                     89                     90
                      A                      A                      A
 Frequencies --   3108.8948              3122.4418              3132.2042
 Red. masses --      1.0977                 1.0575                 1.0579
 Frc consts  --      6.2510                 6.0747                 6.1151
 IR Inten    --     42.2995                 9.2049                12.7866

                     91                     92                     93
                      A                      A                      A
 Frequencies --   3178.0224              3179.8235              3180.9035
 Red. masses --      1.0862                 1.0873                 1.1064
 Frc consts  --      6.4638                 6.4772                 6.5955
 IR Inten    --     17.0794                 9.1344                 9.1272

                     94                     95                     96
                      A                      A                      A
 Frequencies --   3188.3057              3190.6782              3197.2142
 Red. masses --      1.1074                 1.0897                 1.1108
 Frc consts  --      6.6327                 6.5360                 6.6898
 IR Inten    --      7.3355                15.0230                 1.9315

                     97                     98                     99
                      A                      A                      A
 Frequencies --   3198.0583              3210.2250              3213.6135
 Red. masses --      1.0939                 1.0978                 1.1097
 Frc consts  --      6.5917                 6.6655                 6.7520
 IR Inten    --     76.7414                33.5111                 9.2202

 - Thermochemistry -
 -------------------
 Temperature   298.150 Kelvin.  Pressure   1.00000 Atm.
 Atom     1 has atomic number  6 and mass  12.00000

 Molecular mass:   302.05208 amu.
 Principal axes and moments of inertia in atomic units:
                           1         2         3
     Eigenvalues --  4398.877577575.91294**********
           X            0.99750  -0.04968   0.05032
           Y            0.04979   0.99876  -0.00107
           Z           -0.05021   0.00357   0.99873
 This molecule is an asymmetric top.
 Rotational symmetry number  1.
 Warning -- assumption of classical behavior for rotation
           may cause significant error
 Rotational temperatures (Kelvin)      0.01969     0.01143     0.00852
 Rotational constants (GHZ):           0.41027     0.23822     0.17757
 Zero-point vibrational energy     717401.7 (Joules/Mol)
                                  171.46313 (Kcal/Mol)
 Warning -- explicit consideration of  29 degrees of freedom as
           vibrations may cause significant error
 Vibrational temperatures:     26.86    31.30    53.09    60.48    86.10
          (Kelvin)            144.10   190.24   217.33   261.18   298.38
                              313.20   329.16   337.03   408.97   443.57
                              449.29   499.87   530.85   548.93   591.89
                              602.12   634.13   648.69   709.89   723.01
                              761.95   794.44   818.90   864.63   913.00
                              949.80  1028.80  1047.60  1090.26  1095.15
                             1109.97  1122.02  1165.83  1224.37  1243.63
                             1280.78  1315.17  1344.99  1403.25  1405.17
                             1411.98  1419.80  1442.46  1452.39  1460.43
                             1492.19  1511.40  1520.72  1532.56  1551.54
                             1559.28  1606.63  1630.77  1642.38  1699.10
                             1708.44  1727.96  1741.72  1764.58  1772.92
                             1799.78  1828.52  1873.27  1940.51  1964.49
                             1978.96  2001.03  2024.72  2089.62  2121.42
                             2123.93  2133.06  2154.33  2162.13  2177.04
                             2220.01  2355.01  2385.86  4369.21  4401.14
                             4436.91  4439.62  4473.01  4492.50  4506.54
                             4572.47  4575.06  4576.61  4587.26  4590.67
                             4600.08  4601.29  4618.80  4623.67

 Zero-point correction=                           0.273244 (Hartree/Particle)
 Thermal correction to Energy=                    0.291665
 Thermal correction to Enthalpy=                  0.292609
 Thermal correction to Gibbs Free Energy=         0.224206
 Sum of electronic and zero-point Energies=          -1618.731021
 Sum of electronic and thermal Energies=             -1618.712600
 Sum of electronic and thermal Enthalpies=           -1618.711656
 Sum of electronic and thermal Free Energies=        -1618.780059

                     E (Thermal)             CV                S
                      KCal/Mol        Cal/Mol-Kelvin    Cal/Mol-Kelvin
 Total                  183.022             70.737            143.967
 Electronic               0.000              0.000              0.000
 Translational            0.889              2.981             43.013
 Rotational               0.889              2.981             34.181
 Vibrational            181.245             64.775             66.772
 Vibration     1          0.593              1.986              6.771
 Vibration     2          0.593              1.985              6.467
 Vibration     3          0.594              1.982              5.419
 Vibration     4          0.595              1.980              5.161
 Vibration     5          0.597              1.973              4.462
 Vibration     6          0.604              1.949              3.451
 Vibration     7          0.612              1.921              2.913
 Vibration     8          0.618              1.902              2.659
 Vibration     9          0.630              1.865              2.313
 Vibration    10          0.641              1.829              2.067
 Vibration    11          0.646              1.814              1.978
 Vibration    12          0.651              1.797              1.889
 Vibration    13          0.654              1.788              1.846
 Vibration    14          0.683              1.703              1.508
 Vibration    15          0.698              1.658              1.371
 Vibration    16          0.701              1.650              1.350
 Vibration    17          0.725              1.581              1.178
 Vibration    18          0.741              1.536              1.084
 Vibration    19          0.751              1.510              1.033
 Vibration    20          0.775              1.446              0.922
 Vibration    21          0.781              1.430              0.897
 Vibration    22          0.801              1.381              0.824
 Vibration    23          0.810              1.359              0.793
 Vibration    24          0.849              1.265              0.675
 Vibration    25          0.858              1.244              0.652
 Vibration    26          0.885              1.185              0.588
 Vibration    27          0.908              1.135              0.540
 Vibration    28          0.925              1.098              0.506
 Vibration    29          0.959              1.030              0.448

 Optimization completed.
    -- Stationary point found.
 Normal termination of Gaussian 16 at Tue Sep 22 02:06:55 2020.

 ----------------------------------------------------------------------
 #p b3lyp/6-31G(d) scrf=(iefpcm,read,solvent=water) geom=allcheck guess
 =read
 ----------------------------------------------------------------------

 Structure from the checkpoint file:  "SM38_m1.a.1.pdb.xyz.mst.a.w.chk"
 -------------------
 SM38_m1.a.1.pdb.xyz
 -------------------
 Charge = -1 Multiplicity = 1

 SCF Done:  E(RB3LYP) =  -1619.00421125     A.U. after    7 cycles
 Normal termination of Gaussian 16 at Tue Sep 22 02:07:42 2020.

 -----------------------------
 #p B3LYP/6-31G* geom=allcheck
 -----------------------------

 Structure from the checkpoint file:  "SM38_m1.a.1.pdb.xyz.mst.a.w.chk"
 -------------------
 SM38_m1.a.1.pdb.xyz
 -------------------
 Charge = -1 Multiplicity = 1

 SCF Done:  E(RB3LYP) =  -1618.83543383     A.U. after   15 cycles

 The electronic state is 1-A.
 Alpha  occ. eigenvalues --  -88.95154 -88.92298 -19.00968 -19.00390 -18.94864
 Alpha  occ. eigenvalues --  -18.94547 -14.13114 -10.11851 -10.10595 -10.10470
 Alpha  occ. eigenvalues --  -10.10441 -10.10382 -10.09856 -10.09806 -10.09250
 Alpha  occ. eigenvalues --  -10.09065 -10.07589 -10.06757 -10.06729  -7.98211
 Alpha  occ. eigenvalues --   -7.94682  -5.94654  -5.94567  -5.94467  -5.91156
 Alpha  occ. eigenvalues --   -5.91097  -5.91046  -0.95642  -0.90443  -0.85256
 Alpha  occ. eigenvalues --   -0.78715  -0.76608  -0.75403  -0.68875  -0.67785
 Alpha  occ. eigenvalues --   -0.65470  -0.62816  -0.60230  -0.57899  -0.54971
 Alpha  occ. eigenvalues --   -0.51626  -0.49928  -0.47232  -0.44714  -0.42232
 Alpha  occ. eigenvalues --   -0.40136  -0.37508  -0.37054  -0.35864  -0.35107
 Alpha  occ. eigenvalues --   -0.34708  -0.33140  -0.32837  -0.32047  -0.31613
 Alpha  occ. eigenvalues --   -0.30596  -0.30326  -0.29792  -0.29285  -0.28370
 Alpha  occ. eigenvalues --   -0.27619  -0.26605  -0.25806  -0.25579  -0.25141
 Alpha  occ. eigenvalues --   -0.24427  -0.22822  -0.21173  -0.18351  -0.17822
 Alpha  occ. eigenvalues --   -0.16840  -0.16157  -0.15890  -0.15283  -0.14905
 Alpha  occ. eigenvalues --   -0.12836  -0.12540  -0.11033  -0.09221  -0.04956
 Alpha virt. eigenvalues --    0.08520   0.08830   0.17438   0.18268   0.18424
 Alpha virt. eigenvalues --    0.19665   0.19921   0.20539   0.21372   0.23271
 Alpha virt. eigenvalues --    0.23791   0.24171   0.24483   0.25674   0.25827

 Mulliken charges:
               1
     1  C   -0.600316
     2  S    1.087550
     3  N   -0.650864
     4  C    0.173255
     5  C   -0.500830
     6  S    1.068683
     7  C   -0.471231
     8  O   -0.539581
     9  O   -0.566521
    10  C   -0.274462
    11  C   -0.366357
    12  C    0.175354
    13  C   -0.173790
    14  C   -0.126911
    15  C   -0.134211
    16  C   -0.124659
    17  C   -0.196742
    18  O   -0.621843
    19  O   -0.623625
    20  H    0.176681
    21  H    0.158513
    22  H    0.165112
    23  H    0.176082
    24  H    0.245904
    25  H    0.156674
    26  H    0.193585
    27  H    0.135503
    28  H    0.186358
    29  H    0.130459
    30  H    0.134620
    31  H    0.136713
    32  H    0.114693
    33  H    0.106373
    34  H    0.113981
    35  H    0.135849
 Sum of Mulliken charges =  -1.00000

 Dipole moment (field-independent basis, Debye):
    X=             -6.8434    Y=             -0.2241    Z=              3.1604  Tot=              7.5413
 Quadrupole moment (field-independent basis, Debye-Ang):
   XX=           -147.4881   YY=           -168.1343   ZZ=           -132.8730
   XY=              7.0351   XZ=              5.0996   YZ=              6.1401

 Normal termination of Gaussian 16 at Tue Sep 22 02:08:40 2020.
 Gaussian 16:  ES64L-G16RevB.01 20-Dec-2017

 ----------------------------------------------------------------------
 #p mp2/aug-cc-pVDZ scf=(MaxCycle=2000,NoVarAcc,NoIncFock) maxdisk=120G
 B geom=allcheck
 ----------------------------------------------------------------------

 Structure from the checkpoint file:  "SM38_m1.a.1.pdb.xyz.mst.a.w.chk"
 -------------------
 SM38_m1.a.1.pdb.xyz
 -------------------
 Charge = -1 Multiplicity = 1

                         Standard orientation:
 ---------------------------------------------------------------------
 Center     Atomic      Atomic             Coordinates (Angstroms)
 Number     Number       Type             X           Y           Z
 ---------------------------------------------------------------------
      1          6           0        4.290901   -1.312632   -0.395018
      2         16           0        2.498625   -1.458613   -0.263879
      3          7           0        2.163619   -0.142626    0.567347
      4          6           0        0.775009    0.292883    0.707585
      5          6           0        0.149318    0.783134   -0.665123
      6         16           0        0.613204    2.492027   -0.259531
      7          6           0        0.858518    1.714306    1.369708
      8          8           0        1.885734    2.915792   -0.890613
      9          8           0       -0.515620    3.452757   -0.300472
     10          6           0       -0.094748   -0.707606    1.513607
     11          6           0       -1.562399   -0.350690    1.854704
     12          6           0       -2.592612   -0.578331    0.762261
     13          6           0       -2.803268   -1.860738    0.229666
     14          6           0       -3.770407   -2.082407   -0.751951
     15          6           0       -4.552916   -1.022800   -1.221469
     16          6           0       -4.359128    0.256881   -0.697983
     17          6           0       -3.389007    0.473310    0.285480
     18          8           0        1.963674   -1.492086   -1.670941
     19          8           0        2.251334   -2.760133    0.447404
     20          1           0        4.542506   -0.411776   -0.956889
     21          1           0        4.651799   -2.200088   -0.919851
     22          1           0        4.722502   -1.267805    0.606306
     23          1           0       -0.938086    0.722802   -0.725875
     24          1           0        0.623541    0.379892   -1.557816
     25          1           0        0.021132    1.977199    2.018428
     26          1           0        1.812878    1.945615    1.842771
     27          1           0        0.442887   -0.869745    2.455824
     28          1           0       -0.073726   -1.669514    0.991265
     29          1           0       -1.639145    0.682950    2.210720
     30          1           0       -1.839101   -0.976113    2.714098
     31          1           0       -2.209502   -2.696698    0.592311
     32          1           0       -3.916449   -3.084023   -1.147992
     33          1           0       -5.306469   -1.194882   -1.985107
     34          1           0       -4.961954    1.088974   -1.052231
     35          1           0       -3.243956    1.474473    0.685331
 ---------------------------------------------------------------------

 SCF Done:  E(RHF) =  -1612.64286646     A.U. after   16 cycles
