 Gaussian 16, Revision B.01,

 ----------------------------------------------------------------------
 #p b3lyp/6-31G(d) opt freq NoSymm scf=(MaxCycle=2000,NoVarAcc,NoIncFoc
 k) scrf=(iefpcm,read,solvent=water) MaxDisk=20GB
 ----------------------------------------------------------------------

 -------------------
 SM38_m0.n.2.pdb.xyz
 -------------------
 Symbolic Z-matrix:
 Charge =  0 Multiplicity = 1

 SCF Done:  E(RB3LYP) =  -1619.41932377     A.U. after   13 cycles
 SCF Done:  E(RB3LYP) =  -1619.41941047     A.U. after   10 cycles
 SCF Done:  E(RB3LYP) =  -1619.41937337     A.U. after    9 cycles
 SCF Done:  E(RB3LYP) =  -1619.41939863     A.U. after    8 cycles
 SCF Done:  E(RB3LYP) =  -1619.41940768     A.U. after    9 cycles
 SCF Done:  E(RB3LYP) =  -1619.41941054     A.U. after    8 cycles
 SCF Done:  E(RB3LYP) =  -1619.41940974     A.U. after    9 cycles
 SCF Done:  E(RB3LYP) =  -1619.41940006     A.U. after    8 cycles
 SCF Done:  E(RB3LYP) =  -1619.41941272     A.U. after    9 cycles
 SCF Done:  E(RB3LYP) =  -1619.41940737     A.U. after    9 cycles
 SCF Done:  E(RB3LYP) =  -1619.41941255     A.U. after    9 cycles
 SCF Done:  E(RB3LYP) =  -1619.41940242     A.U. after    9 cycles
 SCF Done:  E(RB3LYP) =  -1619.41940285     A.U. after    7 cycles
 SCF Done:  E(RB3LYP) =  -1619.41941224     A.U. after    9 cycles
 SCF Done:  E(RB3LYP) =  -1619.41941272     A.U. after    7 cycles
 SCF Done:  E(RB3LYP) =  -1619.41940283     A.U. after    9 cycles
 Optimization completed.
    -- Stationary point found.
 Normal termination of Gaussian 16 at Tue Sep 15 07:47:45 2020.

 --------------------------------------------------------------------
 #P Geom=AllCheck Guess=TCheck SCRF=Check GenChk RB3LYP/6-31G(d) Freq
 --------------------------------------------------------------------

 Structure from the checkpoint file:  "SM38_m0.n.2.pdb.xyz.mst.n.w.chk"
 -------------------
 SM38_m0.n.2.pdb.xyz
 -------------------
 Charge =  0 Multiplicity = 1

 SCF Done:  E(RB3LYP) =  -1619.41940283     A.U. after    1 cycles

  Exact polarizability: 257.486 -23.152 198.563   7.213  15.304 219.619
 Approx polarizability: 279.847 -28.195 222.776   7.938  15.506 262.998

                      1                      2                      3
                      A                      A                      A
 Frequencies --     24.8592                35.1314                38.5913
 Red. masses --      4.1224                 5.3288                 5.7311
 Frc consts  --      0.0015                 0.0039                 0.0050
 IR Inten    --      0.2215                 0.1597                10.2805

                      4                      5                      6
                      A                      A                      A
 Frequencies --     43.0667                53.9292               100.5544
 Red. masses --      5.8163                 5.8055                 4.9383
 Frc consts  --      0.0064                 0.0099                 0.0294
 IR Inten    --      6.0935                 8.1608                 1.0811

                      7                      8                      9
                      A                      A                      A
 Frequencies --    120.6988               138.9995               169.4818
 Red. masses --      3.1019                 7.7207                 7.4151
 Frc consts  --      0.0266                 0.0879                 0.1255
 IR Inten    --      6.1913                 2.6908                 0.5563

                     10                     11                     12
                      A                      A                      A
 Frequencies --    196.3291               207.5923               222.4173
 Red. masses --      3.5669                 3.0632                 2.6006
 Frc consts  --      0.0810                 0.0778                 0.0758
 IR Inten    --      0.6909                10.4254                10.8796

                     13                     14                     15
                      A                      A                      A
 Frequencies --    241.2584               279.9725               286.2463
 Red. masses --      1.7639                 2.8407                 3.8476
 Frc consts  --      0.0605                 0.1312                 0.1857
 IR Inten    --      2.0346                10.8876                 4.7140

                     16                     17                     18
                      A                      A                      A
 Frequencies --    306.8708               328.3360               338.4913
 Red. masses --      3.8680                 2.5794                 3.2232
 Frc consts  --      0.2146                 0.1638                 0.2176
 IR Inten    --      2.6156                 2.5809                 8.1654

                     19                     20                     21
                      A                      A                      A
 Frequencies --    364.4011               389.4864               419.4832
 Red. masses --      3.3151                 3.4513                 3.0114
 Frc consts  --      0.2594                 0.3085                 0.3122
 IR Inten    --      2.5656                38.6742                 0.7658

                     22                     23                     24
                      A                      A                      A
 Frequencies --    420.4880               443.8280               465.8688
 Red. masses --      5.5412                 4.5745                 2.6560
 Frc consts  --      0.5772                 0.5309                 0.3396
 IR Inten    --     44.9611                23.1077                36.8572

                     25                     26                     27
                      A                      A                      A
 Frequencies --    493.2269               517.3170               534.3279
 Red. masses --      5.3861                 3.3442                 4.8904
 Frc consts  --      0.7720                 0.5273                 0.8226
 IR Inten    --     50.4236                 5.5968                55.0130

                     28                     29                     30
                      A                      A                      A
 Frequencies --    583.2668               597.0377               628.2491
 Red. masses --      5.1306                 4.1451                 3.3484
 Frc consts  --      1.0284                 0.8705                 0.7787
 IR Inten    --     34.6959               162.3693                41.2085

                     31                     32                     33
                      A                      A                      A
 Frequencies --    634.5414               708.8520               722.6706
 Red. masses --      6.3343                 3.3334                 1.7618
 Frc consts  --      1.5027                 0.9868                 0.5421
 IR Inten    --      0.1825                 3.9526                34.6867

                     34                     35                     36
                      A                      A                      A
 Frequencies --    752.1471               767.0140               772.8483
 Red. masses --      4.4651                 4.7628                 1.3877
 Frc consts  --      1.4883                 1.6509                 0.4884
 IR Inten    --     36.6157               140.3675                14.9741

                     37                     38                     39
                      A                      A                      A
 Frequencies --    778.0062               820.7864               834.2967
 Red. masses --      2.0077                 1.5867                 2.9154
 Frc consts  --      0.7160                 0.6298                 1.1956
 IR Inten    --     17.8695                22.4056                30.4663

                     40                     41                     42
                      A                      A                      A
 Frequencies --    837.7896               868.6550               873.3152
 Red. masses --      3.7188                 1.2603                 3.0062
 Frc consts  --      1.5379                 0.5603                 1.3508
 IR Inten    --      3.8170                 1.4211                85.1290

                     43                     44                     45
                      A                      A                      A
 Frequencies --    930.6679               935.0613               958.6280
 Red. masses --      2.3373                 1.5659                 1.8829
 Frc consts  --      1.1928                 0.8066                 1.0195
 IR Inten    --     94.4897                30.0378                 5.2839

                     46                     47                     48
                      A                      A                      A
 Frequencies --    980.1603              1001.4509              1005.9674
 Red. masses --      1.3524                 1.5566                 1.2540
 Frc consts  --      0.7655                 0.9198                 0.7477
 IR Inten    --      0.0307               100.2817                 1.9289

                     49                     50                     51
                      A                      A                      A
 Frequencies --   1008.5548              1016.6173              1021.0514
 Red. masses --      1.3342                 6.1265                 1.6389
 Frc consts  --      0.7996                 3.7306                 1.0067
 IR Inten    --      2.4089                 0.2842                 5.9214

                     52                     53                     54
                      A                      A                      A
 Frequencies --   1053.5594              1056.2244              1064.7250
 Red. masses --      2.4291                 2.6266                 1.2020
 Frc consts  --      1.5886                 1.7264                 0.8028
 IR Inten    --      0.7253                53.8257                 3.1096

                     55                     56                     57
                      A                      A                      A
 Frequencies --   1078.3248              1089.3969              1112.0231
 Red. masses --      1.9923                 3.7715                 5.0729
 Frc consts  --      1.3649                 2.6371                 3.6960
 IR Inten    --     27.1113               291.5905               165.0013

                     58                     59                     60
                      A                      A                      A
 Frequencies --   1129.7066              1163.0887              1186.8319
 Red. masses --      1.8003                 4.6235                 1.0943
 Frc consts  --      1.3537                 3.6850                 0.9082
 IR Inten    --      2.3700                79.9824                 0.1454

                     61                     62                     63
                      A                      A                      A
 Frequencies --   1196.3955              1202.2034              1227.2913
 Red. masses --      1.3365                 1.1339                 1.8954
 Frc consts  --      1.1272                 0.9655                 1.6820
 IR Inten    --     22.0032                 0.6417               121.8575

                     64                     65                     66
                      A                      A                      A
 Frequencies --   1238.2605              1241.2214              1264.8298
 Red. masses --      2.1878                 1.7594                 3.2083
 Frc consts  --      1.9764                 1.5970                 3.0241
 IR Inten    --     26.9830                37.7551               222.9267

                     67                     68                     69
                      A                      A                      A
 Frequencies --   1273.9989              1282.1459              1333.1982
 Red. masses --      6.5262                 2.8865                 1.4380
 Frc consts  --      6.2409                 2.7958                 1.5059
 IR Inten    --    372.2913               150.1441                38.2206

                     70                     71                     72
                      A                      A                      A
 Frequencies --   1347.2239              1360.7258              1372.5972
 Red. masses --      1.5004                 2.4778                 1.3125
 Frc consts  --      1.6045                 2.7031                 1.4570
 IR Inten    --      3.4959                 0.0078                 1.9434

                     73                     74                     75
                      A                      A                      A
 Frequencies --   1390.3475              1413.8457              1451.5164
 Red. masses --      1.1988                 1.4399                 1.1292
 Frc consts  --      1.3653                 1.6959                 1.4017
 IR Inten    --     11.8734                10.1741                42.0305

                     76                     77                     78
                      A                      A                      A
 Frequencies --   1465.9930              1473.9906              1474.5352
 Red. masses --      1.0984                 1.0561                 1.0476
 Frc consts  --      1.3908                 1.3519                 1.3421
 IR Inten    --     33.5676                10.1306                 7.4084

                     79                     80                     81
                      A                      A                      A
 Frequencies --   1497.0284              1499.2676              1503.2148
 Red. masses --      1.1375                 2.0066                 1.1480
 Frc consts  --      1.5019                 2.6575                 1.5283
 IR Inten    --     11.0894                 3.1806                11.7455

                     82                     83                     84
                      A                      A                      A
 Frequencies --   1519.3568              1542.8398              1642.5570
 Red. masses --      1.1017                 2.2478                 5.5061
 Frc consts  --      1.4985                 3.1524                 8.7526
 IR Inten    --      8.0154                20.0295                 1.7055

                     85                     86                     87
                      A                      A                      A
 Frequencies --   1661.9981              3068.3638              3076.4652
 Red. masses --      5.7298                 1.0589                 1.0608
 Frc consts  --      9.3250                 5.8740                 5.9155
 IR Inten    --      9.7482                15.3344                66.1384

                     88                     89                     90
                      A                      A                      A
 Frequencies --   3107.3143              3111.5183              3127.6819
 Red. masses --      1.1021                 1.0296                 1.1046
 Frc consts  --      6.2695                 5.8733                 6.3665
 IR Inten    --      9.3363                 0.0484                52.7406

                     91                     92                     93
                      A                      A                      A
 Frequencies --   3143.0762              3157.4888              3191.3498
 Red. masses --      1.0581                 1.0598                 1.0861
 Frc consts  --      6.1586                 6.2253                 6.5175
 IR Inten    --      1.9979                 4.0905                14.4668

                     94                     95                     96
                      A                      A                      A
 Frequencies --   3192.5065              3202.8200              3211.6528
 Red. masses --      1.0878                 1.0898                 1.0939
 Frc consts  --      6.5321                 6.5866                 6.6478
 IR Inten    --     11.2760                17.5092                73.2573

                     97                     98                     99
                      A                      A                      A
 Frequencies --   3212.9561              3216.0570              3222.5828
 Red. masses --      1.1068                 1.1107                 1.0978
 Frc consts  --      6.7319                 6.7686                 6.7173
 IR Inten    --      0.0171                 0.4275                31.5061

                    100                    101                    102
                      A                      A                      A
 Frequencies --   3225.3424              3239.9150              3471.2239
 Red. masses --      1.1089                 1.1081                 1.0753
 Frc consts  --      6.7968                 6.8531                 7.6342
 IR Inten    --      0.0414                 5.0181               113.4430

 - Thermochemistry -
 -------------------
 Temperature   298.150 Kelvin.  Pressure   1.00000 Atm.
 Atom     1 has atomic number  6 and mass  12.00000

 Molecular mass:   303.05990 amu.
 Principal axes and moments of inertia in atomic units:
                           1         2         3
     Eigenvalues --  4331.853599560.36298**********
           X            0.99959   0.02808  -0.00552
           Y           -0.02804   0.99958   0.00742
           Z            0.00573  -0.00726   0.99996
 This molecule is an asymmetric top.
 Rotational symmetry number  1.
 Warning -- assumption of classical behavior for rotation
           may cause significant error
 Rotational temperatures (Kelvin)      0.01999     0.00906     0.00690
 Rotational constants (GHZ):           0.41662     0.18877     0.14377
 Zero-point vibrational energy     754889.5 (Joules/Mol)
                                  180.42292 (Kcal/Mol)
 Warning -- explicit consideration of  29 degrees of freedom as
           vibrations may cause significant error
 Vibrational temperatures:     35.77    50.55    55.52    61.96    77.59
          (Kelvin)            144.68   173.66   199.99   243.85   282.47
                              298.68   320.01   347.12   402.82   411.84
                              441.52   472.40   487.01   524.29   560.38
                              603.54   604.99   638.57   670.28   709.64
                              744.30   768.78   839.19   859.00   903.91
                              912.96  1019.88  1039.76  1082.17  1103.56
                             1111.96  1119.38  1180.93  1200.37  1205.39
                             1249.80  1256.51  1339.02  1345.34  1379.25
                             1410.23  1440.86  1447.36  1451.09  1462.69
                             1469.07  1515.84  1519.67  1531.90  1551.47
                             1567.40  1599.95  1625.40  1673.43  1707.59
                             1721.35  1729.70  1765.80  1781.58  1785.84
                             1819.81  1833.00  1844.72  1918.17  1938.35
                             1957.78  1974.86  2000.40  2034.21  2088.41
                             2109.24  2120.74  2121.53  2153.89  2157.11
                             2162.79  2186.02  2219.80  2363.27  2391.24
                             4414.69  4426.35  4470.73  4476.78  4500.04
                             4522.19  4542.92  4591.64  4593.30  4608.14
                             4620.85  4622.73  4627.19  4636.58  4640.55
                             4661.52  4994.32

 Zero-point correction=                           0.287522 (Hartree/Particle)
 Thermal correction to Energy=                    0.306260
 Thermal correction to Enthalpy=                  0.307205
 Thermal correction to Gibbs Free Energy=         0.238528
 Sum of electronic and zero-point Energies=          -1619.131881
 Sum of electronic and thermal Energies=             -1619.113142
 Sum of electronic and thermal Enthalpies=           -1619.112198
 Sum of electronic and thermal Free Energies=        -1619.180875

                     E (Thermal)             CV                S
                      KCal/Mol        Cal/Mol-Kelvin    Cal/Mol-Kelvin
 Total                  192.181             71.687            144.543
 Electronic               0.000              0.000              0.000
 Translational            0.889              2.981             43.023
 Rotational               0.889              2.981             34.607
 Vibrational            190.404             65.726             66.913
 Vibration     1          0.593              1.985              6.202
 Vibration     2          0.594              1.982              5.516
 Vibration     3          0.594              1.981              5.330
 Vibration     4          0.595              1.980              5.113
 Vibration     5          0.596              1.976              4.668
 Vibration     6          0.604              1.949              3.444
 Vibration     7          0.609              1.932              3.089
 Vibration     8          0.615              1.914              2.818
 Vibration     9          0.625              1.880              2.441
 Vibration    10          0.636              1.845              2.167
 Vibration    11          0.641              1.829              2.065
 Vibration    12          0.648              1.807              1.939
 Vibration    13          0.658              1.777              1.794
 Vibration    14          0.680              1.711              1.534
 Vibration    15          0.684              1.699              1.496
 Vibration    16          0.697              1.661              1.379
 Vibration    17          0.712              1.619              1.268
 Vibration    18          0.719              1.599              1.219
 Vibration    19          0.738              1.546              1.103
 Vibration    20          0.757              1.493              1.002
 Vibration    21          0.782              1.428              0.894
 Vibration    22          0.783              1.426              0.890
 Vibration    23          0.803              1.375              0.815
 Vibration    24          0.823              1.326              0.749
 Vibration    25          0.849              1.265              0.675
 Vibration    26          0.872              1.212              0.616
 Vibration    27          0.889              1.174              0.578
 Vibration    28          0.940              1.068              0.479
 Vibration    29          0.955              1.038              0.455

 Optimization completed.
    -- Stationary point found.
 Normal termination of Gaussian 16 at Tue Sep 15 08:00:07 2020.

 ----------------------------------------------------------------------
 #p b3lyp/6-31G(d) scrf=(iefpcm,read,solvent=water) geom=allcheck guess
 =read
 ----------------------------------------------------------------------

 Structure from the checkpoint file:  "SM38_m0.n.2.pdb.xyz.mst.n.w.chk"
 -------------------
 SM38_m0.n.2.pdb.xyz
 -------------------
 Charge =  0 Multiplicity = 1

 SCF Done:  E(RB3LYP) =  -1619.41940873     A.U. after    5 cycles
 Normal termination of Gaussian 16 at Tue Sep 15 08:00:40 2020.

 -----------------------------
 #p B3LYP/6-31G* geom=allcheck
 -----------------------------

 Structure from the checkpoint file:  "SM38_m0.n.2.pdb.xyz.mst.n.w.chk"
 -------------------
 SM38_m0.n.2.pdb.xyz
 -------------------
 Charge =  0 Multiplicity = 1

 SCF Done:  E(RB3LYP) =  -1619.38576893     A.U. after   15 cycles
 Normal termination of Gaussian 16 at Tue Sep 15 08:01:32 2020.
 Gaussian 16:  ES64L-G16RevB.01 20-Dec-2017

 ----------------------------------------------------------------------
 #p mp2/aug-cc-pVDZ scf=(MaxCycle=2000,NoVarAcc,NoIncFock) maxdisk=180G
 B geom=allcheck
 ----------------------------------------------------------------------

 Structure from the checkpoint file:  "SM38_m0.n.2.pdb.xyz.mst.n.w.chk"
 -------------------
 SM38_m0.n.2.pdb.xyz
 -------------------
 Charge =  0 Multiplicity = 1

                         Standard orientation:
 ---------------------------------------------------------------------
 Center     Atomic      Atomic             Coordinates (Angstroms)
 Number     Number       Type             X           Y           Z
 ---------------------------------------------------------------------
      1          6           0        3.328564    2.881025   -0.257071
      2         16           0        1.664109    2.286127    0.026295
      3          7           0        1.721396    0.791808   -0.764767
      4          6           0        0.867794   -0.326576   -0.297521
      5          6           0        1.438098   -0.897770    1.039281
      6         16           0        2.356425   -2.168844    0.112380
      7          6           0        1.249981   -1.544443   -1.198552
      8          8           0        3.765981   -1.792044   -0.116803
      9          8           0        2.069085   -3.554435    0.532577
     10          6           0       -0.627228    0.036252   -0.293504
     11          6           0       -1.606981   -1.069687    0.137402
     12          6           0       -3.041021   -0.585981    0.093136
     13          6           0       -3.803136   -0.711632   -1.076121
     14          6           0       -5.115849   -0.239766   -1.130027
     15          6           0       -5.688715    0.366658   -0.009869
     16          6           0       -4.940119    0.495852    1.161811
     17          6           0       -3.627738    0.022624    1.210933
     18          8           0        1.474154    2.013262    1.461180
     19          8           0        0.727487    3.211357   -0.636201
     20          1           0        4.029458    2.186682    0.203099
     21          1           0        3.394658    3.867797    0.202572
     22          1           0        3.495841    2.951841   -1.330750
     23          1           0        1.603614    0.956806   -1.767977
     24          1           0        0.682699   -1.382506    1.656920
     25          1           0        2.051081   -0.222944    1.629167
     26          1           0        0.430916   -2.247092   -1.352838
     27          1           0        1.749706   -1.319498   -2.139134
     28          1           0       -0.886846    0.373738   -1.302739
     29          1           0       -0.755768    0.896683    0.369808
     30          1           0       -1.369713   -1.400623    1.153163
     31          1           0       -1.502109   -1.940254   -0.517704
     32          1           0       -3.364769   -1.187793   -1.948803
     33          1           0       -5.691389   -0.350068   -2.043703
     34          1           0       -6.710283    0.731361   -0.048405
     35          1           0       -5.378415    0.960932    2.039180
     36          1           0       -3.052549    0.121305    2.127300
 ---------------------------------------------------------------------

 SCF Done:  E(RHF) =  -1613.19101941     A.U. after   16 cycles
 E2 =    -0.2985471581D+01 EUMP2 =    -0.16161764909888D+04

 The electronic state is 1-A.
 Alpha  occ. eigenvalues --  -92.24123 -92.20201 -20.57665 -20.57323 -20.56201
 Alpha  occ. eigenvalues --  -20.56066 -15.63773 -11.34697 -11.30439 -11.30117
 Alpha  occ. eigenvalues --  -11.29317 -11.26359 -11.26152 -11.26015 -11.25156
 Alpha  occ. eigenvalues --  -11.25077 -11.24940 -11.24825 -11.24758  -9.21000
 Alpha  occ. eigenvalues --   -9.17465  -6.89524  -6.89480  -6.89367  -6.85954
 Alpha  occ. eigenvalues --   -6.85861  -6.85791  -1.47314  -1.44333  -1.35135
 Alpha  occ. eigenvalues --   -1.33037  -1.27845  -1.16890  -1.15361  -1.08658
 Alpha  occ. eigenvalues --   -1.05818  -1.02439  -1.01463  -0.99075  -0.93208
 Alpha  occ. eigenvalues --   -0.87563  -0.83838  -0.83729  -0.81039  -0.78987
 Alpha  occ. eigenvalues --   -0.74339  -0.71833  -0.70225  -0.69845  -0.68538
 Alpha  occ. eigenvalues --   -0.68004  -0.66944  -0.65427  -0.64577  -0.63949
 Alpha  occ. eigenvalues --   -0.62428  -0.61759  -0.61405  -0.61037  -0.60159
 Alpha  occ. eigenvalues --   -0.59396  -0.58237  -0.58033  -0.55384  -0.54279
 Alpha  occ. eigenvalues --   -0.53053  -0.51580  -0.50683  -0.50247  -0.49761
 Alpha  occ. eigenvalues --   -0.49466  -0.48943  -0.48845  -0.48185  -0.47074
 Alpha  occ. eigenvalues --   -0.46340  -0.43600  -0.43071  -0.34459  -0.33684
 Alpha virt. eigenvalues --    0.02194   0.03129   0.03510   0.04016   0.04288
 Alpha virt. eigenvalues --    0.05100   0.05269   0.05632   0.06093   0.06504
 Alpha virt. eigenvalues --    0.07175   0.07597   0.07902   0.08054   0.08783

 Mulliken charges:
               1
     1  C    0.285065
     2  S    2.581959
     3  N   -1.227265
     4  C    0.284881
     5  C    0.086931
     6  S    2.890342
     7  C    0.580531
     8  O   -1.267016
     9  O   -1.234111
    10  C    0.158465
    11  C    1.021816
    12  C    1.117671
    13  C    0.431481
    14  C    0.020983
    15  C    0.641359
    16  C    0.012406
    17  C    0.577101
    18  O   -1.219776
    19  O   -1.162824
    20  H    0.030624
    21  H    0.043866
    22  H    0.009601
    23  H   -0.038362
    24  H   -0.254213
    25  H   -0.249802
    26  H   -0.174529
    27  H   -0.309332
    28  H   -0.133535
    29  H   -0.122351
    30  H   -0.285381
    31  H   -0.371429
    32  H   -0.683297
    33  H   -0.463379
    34  H   -0.437969
    35  H   -0.462493
    36  H   -0.678019
 Sum of Mulliken charges =  -0.00000

 Dipole moment (field-independent basis, Debye):
    X=             -1.7220    Y=              2.5590    Z=             -3.1605  Tot=              4.4162
 Quadrupole moment (field-independent basis, Debye-Ang):
   XX=           -130.2825   YY=           -153.3621   ZZ=           -120.0853
   XY=             23.2542   XZ=             -5.1283   YZ=              3.7356

 Normal termination of Gaussian 16 at Tue Sep 15 09:10:58 2020.
