 Gaussian 16, Revision B.01,

 ----------------------------------------------------------------------
 #p b3lyp/6-31G(d) opt freq NoSymm scf=(MaxCycle=2000,NoVarAcc,NoIncFoc
 k) scrf=(iefpcm,read,solvent=water)
 ----------------------------------------------------------------------

 --------------------
 SM38_m0.n.10.pdb.xyz
 --------------------
 Symbolic Z-matrix:
 Charge =  0 Multiplicity = 1

 SCF Done:  E(RB3LYP) =  -1619.41528905     A.U. after   13 cycles
 SCF Done:  E(RB3LYP) =  -1619.41475054     A.U. after   11 cycles
 SCF Done:  E(RB3LYP) =  -1619.41513929     A.U. after   10 cycles
 SCF Done:  E(RB3LYP) =  -1619.41531040     A.U. after   10 cycles
 SCF Done:  E(RB3LYP) =  -1619.41526040     A.U. after    9 cycles
 SCF Done:  E(RB3LYP) =  -1619.41528758     A.U. after    9 cycles
 SCF Done:  E(RB3LYP) =  -1619.41532375     A.U. after    9 cycles
 SCF Done:  E(RB3LYP) =  -1619.41526520     A.U. after    9 cycles
 SCF Done:  E(RB3LYP) =  -1619.41525655     A.U. after    8 cycles
 SCF Done:  E(RB3LYP) =  -1619.41532104     A.U. after    9 cycles
 SCF Done:  E(RB3LYP) =  -1619.41532022     A.U. after    9 cycles
 SCF Done:  E(RB3LYP) =  -1619.41532100     A.U. after    7 cycles
 SCF Done:  E(RB3LYP) =  -1619.41526073     A.U. after    9 cycles
 SCF Done:  E(RB3LYP) =  -1619.41532021     A.U. after    9 cycles
 SCF Done:  E(RB3LYP) =  -1619.41532100     A.U. after    7 cycles
 SCF Done:  E(RB3LYP) =  -1619.41526101     A.U. after    9 cycles
 Optimization completed.
    -- Stationary point found.
 Normal termination of Gaussian 16 at Mon Sep 21 07:52:51 2020.

 --------------------------------------------------------------------
 #P Geom=AllCheck Guess=TCheck SCRF=Check GenChk RB3LYP/6-31G(d) Freq
 --------------------------------------------------------------------

 Structure from the checkpoint file:  "SM38_m0.n.10.pdb.xyz.mst.n.w.chk"
 --------------------
 SM38_m0.n.10.pdb.xyz
 --------------------
 Charge =  0 Multiplicity = 1

 SCF Done:  E(RB3LYP) =  -1619.41526101     A.U. after    1 cycles

  Exact polarizability: 225.565 -26.105 231.128  24.046  19.286 217.783
 Approx polarizability: 249.195 -28.126 263.590  22.183  24.379 255.788

                      1                      2                      3
                      A                      A                      A
 Frequencies --     24.1310                29.8842                40.0358
 Red. masses --      7.8139                 5.4137                 4.0538
 Frc consts  --      0.0027                 0.0028                 0.0038
 IR Inten    --      4.0978                 5.9373                 1.5478

                      4                      5                      6
                      A                      A                      A
 Frequencies --     46.2544                61.0436                92.2687
 Red. masses --      6.7496                 6.2521                 5.1018
 Frc consts  --      0.0085                 0.0137                 0.0256
 IR Inten    --      1.3023                 2.2753                 8.5658

                      7                      8                      9
                      A                      A                      A
 Frequencies --    121.5287               135.7770               181.8255
 Red. masses --      4.5705                 5.8595                 6.0431
 Frc consts  --      0.0398                 0.0636                 0.1177
 IR Inten    --      3.9920                 3.0066                14.9100

                     10                     11                     12
                      A                      A                      A
 Frequencies --    195.1223               214.2138               244.3251
 Red. masses --      5.2070                 1.6001                 1.8636
 Frc consts  --      0.1168                 0.0433                 0.0655
 IR Inten    --      2.5826                 0.9528                 3.0655

                     13                     14                     15
                      A                      A                      A
 Frequencies --    266.6994               275.0872               308.1409
 Red. masses --      5.2207                 3.1849                 3.6074
 Frc consts  --      0.2188                 0.1420                 0.2018
 IR Inten    --     16.7926                 5.1366                 4.3398

                     16                     17                     18
                      A                      A                      A
 Frequencies --    318.2289               326.9742               354.2780
 Red. masses --      3.0295                 4.0732                 2.8271
 Frc consts  --      0.1808                 0.2566                 0.2091
 IR Inten    --      1.8652                14.0507                31.7184

                     19                     20                     21
                      A                      A                      A
 Frequencies --    375.3055               385.2498               416.5002
 Red. masses --      2.5006                 2.2459                 2.7320
 Frc consts  --      0.2075                 0.1964                 0.2792
 IR Inten    --      8.2214                 4.9975                29.0814

                     22                     23                     24
                      A                      A                      A
 Frequencies --    420.5526               433.2281               475.7264
 Red. masses --      3.0247                 3.6853                 4.4091
 Frc consts  --      0.3152                 0.4075                 0.5879
 IR Inten    --      8.5585                50.0451                48.6943

                     25                     26                     27
                      A                      A                      A
 Frequencies --    477.4222               512.4954               533.6993
 Red. masses --      5.1242                 3.9615                 4.2282
 Frc consts  --      0.6881                 0.6130                 0.7096
 IR Inten    --     16.8084                29.7892                69.3766

                     28                     29                     30
                      A                      A                      A
 Frequencies --    548.6929               586.2261               615.5164
 Red. masses --      5.3015                 2.8678                 4.0487
 Frc consts  --      0.9404                 0.5807                 0.9037
 IR Inten    --    124.9969                47.1952                35.5426

                     31                     32                     33
                      A                      A                      A
 Frequencies --    634.7678               715.2165               718.1539
 Red. masses --      6.2943                 3.0238                 2.0369
 Frc consts  --      1.4943                 0.9113                 0.6189
 IR Inten    --      0.3212                22.1548                31.1306

                     34                     35                     36
                      A                      A                      A
 Frequencies --    753.7854               758.3408               760.8729
 Red. masses --      5.2674                 2.1908                 4.2049
 Frc consts  --      1.7634                 0.7423                 1.4343
 IR Inten    --    101.4275                30.1898                50.4924

                     37                     38                     39
                      A                      A                      A
 Frequencies --    780.1278               792.8386               815.0938
 Red. masses --      2.3013                 2.6907                 1.6984
 Frc consts  --      0.8252                 0.9965                 0.6648
 IR Inten    --     15.4347                 4.6634                 7.6743

                     40                     41                     42
                      A                      A                      A
 Frequencies --    842.6616               868.0360               878.9252
 Red. masses --      3.0330                 1.2507                 2.5005
 Frc consts  --      1.2689                 0.5552                 1.1381
 IR Inten    --    109.3473                 0.2607                30.6277

                     43                     44                     45
                      A                      A                      A
 Frequencies --    912.1602               940.4907               971.4373
 Red. masses --      2.0868                 1.6426                 1.9299
 Frc consts  --      1.0230                 0.8561                 1.0730
 IR Inten    --     26.0557                 8.9921                22.4433

                     46                     47                     48
                      A                      A                      A
 Frequencies --    979.7995               998.4660              1006.3636
 Red. masses --      1.3546                 1.6281                 1.3600
 Frc consts  --      0.7662                 0.9563                 0.8115
 IR Inten    --      0.1922               143.0350                 4.2249

                     49                     50                     51
                      A                      A                      A
 Frequencies --   1007.1661              1011.5352              1016.7181
 Red. masses --      1.2586                 1.7045                 5.9346
 Frc consts  --      0.7522                 1.0276                 3.6144
 IR Inten    --      0.7336                 1.0481                 1.4129

                     52                     53                     54
                      A                      A                      A
 Frequencies --   1032.9472              1043.8204              1058.5340
 Red. masses --      1.8428                 1.3189                 2.1209
 Frc consts  --      1.1585                 0.8467                 1.4002
 IR Inten    --     35.4691                 0.8542                 7.7248

                     55                     56                     57
                      A                      A                      A
 Frequencies --   1076.5667              1079.9532              1109.3679
 Red. masses --      3.8894                 2.4385                 2.1304
 Frc consts  --      2.6559                 1.6756                 1.5448
 IR Inten    --    230.4890                31.0504                85.3055

                     58                     59                     60
                      A                      A                      A
 Frequencies --   1110.9737              1153.8738              1187.1806
 Red. masses --      6.0849                 2.1117                 1.0985
 Frc consts  --      4.4250                 1.6565                 0.9122
 IR Inten    --    251.6585                29.1887                 0.1126

                     61                     62                     63
                      A                      A                      A
 Frequencies --   1188.1971              1209.9502              1213.5971
 Red. masses --      1.3109                 1.1564                 1.6679
 Frc consts  --      1.0905                 0.9974                 1.4473
 IR Inten    --      2.9646                 0.9927                58.9161

                     64                     65                     66
                      A                      A                      A
 Frequencies --   1232.7830              1239.4586              1264.0299
 Red. masses --      2.1336                 2.2507                 3.0984
 Frc consts  --      1.9105                 2.0372                 2.9167
 IR Inten    --      4.5209                23.4427               246.1238

                     67                     68                     69
                      A                      A                      A
 Frequencies --   1272.9776              1279.4779              1313.8113
 Red. masses --      6.2670                 2.5889                 1.4763
 Frc consts  --      5.9834                 2.4970                 1.5014
 IR Inten    --    443.1760               104.2246                50.3930

                     70                     71                     72
                      A                      A                      A
 Frequencies --   1357.8016              1367.7462              1387.2489
 Red. masses --      4.1926                 1.3685                 1.2019
 Frc consts  --      4.5542                 1.5084                 1.3627
 IR Inten    --      1.7266                 0.5707                11.0740

                     73                     74                     75
                      A                      A                      A
 Frequencies --   1397.2510              1414.6071              1443.0861
 Red. masses --      1.3705                 1.3432                 1.1007
 Frc consts  --      1.5764                 1.5837                 1.3506
 IR Inten    --     25.1658                35.9717                30.9951

                     76                     77                     78
                      A                      A                      A
 Frequencies --   1455.5823              1463.7066              1473.7481
 Red. masses --      1.1402                 1.1171                 1.0487
 Frc consts  --      1.4233                 1.4101                 1.3420
 IR Inten    --     48.4493                19.5205                 6.3181

                     79                     80                     81
                      A                      A                      A
 Frequencies --   1477.7793              1499.8686              1518.4149
 Red. masses --      1.1172                 2.1341                 1.0893
 Frc consts  --      1.4375                 2.8286                 1.4797
 IR Inten    --     31.3847                 5.4278                 6.8108

                     82                     83                     84
                      A                      A                      A
 Frequencies --   1536.4871              1544.6564              1641.7952
 Red. masses --      1.0992                 2.1906                 5.4609
 Frc consts  --      1.5289                 3.0795                 8.6726
 IR Inten    --     26.5194                14.1874                 1.5827

                     85                     86                     87
                      A                      A                      A
 Frequencies --   1662.6675              3066.2800              3083.3118
 Red. masses --      5.6339                 1.0611                 1.0637
 Frc consts  --      9.1763                 5.8780                 5.9581
 IR Inten    --      6.3942                45.7575                26.3343

                     88                     89                     90
                      A                      A                      A
 Frequencies --   3101.0345              3108.6865              3130.1224
 Red. masses --      1.0994                 1.0299                 1.1037
 Frc consts  --      6.2289                 5.8643                 6.3710
 IR Inten    --     50.2715                 0.0156                33.3183

                     91                     92                     93
                      A                      A                      A
 Frequencies --   3147.8671              3151.5731              3193.0122
 Red. masses --      1.0579                 1.0577                 1.0854
 Frc consts  --      6.1762                 6.1899                 6.5196
 IR Inten    --      2.2575                 5.8090                 8.0849

                     94                     95                     96
                      A                      A                      A
 Frequencies --   3196.7474              3204.4537              3208.7112
 Red. masses --      1.0871                 1.0906                 1.1067
 Frc consts  --      6.5452                 6.5982                 6.7136
 IR Inten    --      5.7244                28.6455                 0.0329

                     97                     98                     99
                      A                      A                      A
 Frequencies --   3211.7992              3222.1889              3223.3191
 Red. masses --      1.0943                 1.0981                 1.1106
 Frc consts  --      6.6511                 6.7174                 6.7984
 IR Inten    --     75.8126                26.2133                 2.9096

                    100                    101                    102
                      A                      A                      A
 Frequencies --   3225.6704              3230.4303              3526.1166
 Red. masses --      1.1089                 1.1114                 1.0738
 Frc consts  --      6.7981                 6.8334                 7.8665
 IR Inten    --      0.0134                 3.8330               116.1044

 - Thermochemistry -
 -------------------
 Temperature   298.150 Kelvin.  Pressure   1.00000 Atm.
 Atom     1 has atomic number  6 and mass  12.00000

 Molecular mass:   303.05990 amu.
 Principal axes and moments of inertia in atomic units:
                           1         2         3
     Eigenvalues --  4527.001697004.493669274.07180
           X            0.99929  -0.03527   0.01296
           Y            0.03519   0.99936   0.00666
           Z           -0.01319  -0.00620   0.99989
 This molecule is an asymmetric top.
 Rotational symmetry number  1.
 Warning -- assumption of classical behavior for rotation
           may cause significant error
 Rotational temperatures (Kelvin)      0.01913     0.01237     0.00934
 Rotational constants (GHZ):           0.39866     0.25765     0.19460
 Zero-point vibrational energy     754369.1 (Joules/Mol)
                                  180.29854 (Kcal/Mol)
 Warning -- explicit consideration of  30 degrees of freedom as
           vibrations may cause significant error
 Vibrational temperatures:     34.72    43.00    57.60    66.55    87.83
          (Kelvin)            132.75   174.85   195.35   261.61   280.74
                              308.21   351.53   383.72   395.79   443.35
                              457.86   470.44   509.73   539.98   554.29
                              599.25   605.08   623.32   684.46   686.90
                              737.37   767.87   789.45   843.45   885.59
                              913.29  1029.04  1033.26  1084.53  1091.08
                             1094.73  1122.43  1140.72  1172.74  1212.40
                             1248.91  1264.58  1312.40  1353.16  1397.68
                             1409.71  1436.57  1447.93  1449.09  1455.37
                             1462.83  1486.18  1501.82  1522.99  1548.94
                             1553.81  1596.13  1598.44  1660.17  1708.09
                             1709.55  1740.85  1746.10  1773.70  1783.30
                             1818.66  1831.53  1840.88  1890.28  1953.57
                             1967.88  1995.94  2010.33  2035.30  2076.28
                             2094.26  2105.95  2120.39  2126.19  2157.98
                             2184.66  2210.66  2222.42  2362.18  2392.21
                             4411.69  4436.20  4461.70  4472.71  4503.55
                             4529.08  4534.41  4594.03  4599.41  4610.49
                             4616.62  4621.06  4636.01  4637.64  4641.02
                             4647.87  5073.30

 Zero-point correction=                           0.287324 (Hartree/Particle)
 Thermal correction to Energy=                    0.305998
 Thermal correction to Enthalpy=                  0.306942
 Thermal correction to Gibbs Free Energy=         0.238723
 Sum of electronic and zero-point Energies=          -1619.127937
 Sum of electronic and thermal Energies=             -1619.109263
 Sum of electronic and thermal Enthalpies=           -1619.108319
 Sum of electronic and thermal Free Energies=        -1619.176538

                     E (Thermal)             CV                S
                      KCal/Mol        Cal/Mol-Kelvin    Cal/Mol-Kelvin
 Total                  192.017             71.864            143.580
 Electronic               0.000              0.000              0.000
 Translational            0.889              2.981             43.023
 Rotational               0.889              2.981             34.041
 Vibrational            190.239             65.902             66.516
 Vibration     1          0.593              1.985              6.261
 Vibration     2          0.594              1.984              5.837
 Vibration     3          0.594              1.981              5.257
 Vibration     4          0.595              1.979              4.971
 Vibration     5          0.597              1.973              4.423
 Vibration     6          0.602              1.955              3.611
 Vibration     7          0.609              1.931              3.076
 Vibration     8          0.614              1.918              2.863
 Vibration     9          0.630              1.864              2.310
 Vibration    10          0.636              1.847              2.179
 Vibration    11          0.644              1.819              2.007
 Vibration    12          0.660              1.772              1.771
 Vibration    13          0.672              1.734              1.618
 Vibration    14          0.677              1.719              1.564
 Vibration    15          0.698              1.658              1.372
 Vibration    16          0.705              1.639              1.319
 Vibration    17          0.711              1.622              1.275
 Vibration    18          0.730              1.566              1.147
 Vibration    19          0.746              1.523              1.058
 Vibration    20          0.754              1.502              1.018
 Vibration    21          0.780              1.434              0.904
 Vibration    22          0.783              1.426              0.890
 Vibration    23          0.794              1.398              0.848
 Vibration    24          0.832              1.304              0.722
 Vibration    25          0.834              1.300              0.717
 Vibration    26          0.868              1.222              0.628
 Vibration    27          0.889              1.175              0.579
 Vibration    28          0.904              1.143              0.547
 Vibration    29          0.943              1.061              0.474
 Vibration    30          0.975              0.999              0.424

 Optimization completed.
    -- Stationary point found.
 Normal termination of Gaussian 16 at Mon Sep 21 08:06:14 2020.

 ----------------------------------------------------------------------
 #p b3lyp/6-31G(d) scrf=(iefpcm,read,solvent=water) geom=allcheck guess
 =read
 ----------------------------------------------------------------------

 Structure from the checkpoint file:  "SM38_m0.n.10.pdb.xyz.mst.n.w.chk"
 --------------------
 SM38_m0.n.10.pdb.xyz
 --------------------
 Charge =  0 Multiplicity = 1

 SCF Done:  E(RB3LYP) =  -1619.41525366     A.U. after    6 cycles
 Normal termination of Gaussian 16 at Mon Sep 21 08:06:54 2020.

 -----------------------------
 #p B3LYP/6-31G* geom=allcheck
 -----------------------------

 Structure from the checkpoint file:  "SM38_m0.n.10.pdb.xyz.mst.n.w.chk"
 --------------------
 SM38_m0.n.10.pdb.xyz
 --------------------
 Charge =  0 Multiplicity = 1

 SCF Done:  E(RB3LYP) =  -1619.38296580     A.U. after   15 cycles
 Normal termination of Gaussian 16 at Mon Sep 21 08:07:50 2020.
 Gaussian 16:  ES64L-G16RevB.01 20-Dec-2017

 ----------------------------------------------------------------------
 #p mp2/aug-cc-pVDZ scf=(MaxCycle=2000,NoVarAcc,NoIncFock) maxdisk=120G
 B geom=allcheck
 ----------------------------------------------------------------------

 Structure from the checkpoint file:  "SM38_m0.n.10.pdb.xyz.mst.n.w.chk"
 --------------------
 SM38_m0.n.10.pdb.xyz
 --------------------
 Charge =  0 Multiplicity = 1

                         Standard orientation:
 ---------------------------------------------------------------------
 Center     Atomic      Atomic             Coordinates (Angstroms)
 Number     Number       Type             X           Y           Z
 ---------------------------------------------------------------------
      1          6           0        3.425989   -2.518021    0.590883
      2         16           0        2.277987   -1.507188   -0.337637
      3          7           0        1.266866   -0.940504    0.886860
      4          6           0        0.604441    0.369898    0.803675
      5          6           0        0.022090    0.808235   -0.595982
      6         16           0        0.808303    2.442085   -0.395860
      7          6           0        1.613143    1.552385    0.972605
      8          8           0        1.716211    2.830593   -1.492641
      9          8           0       -0.155331    3.448996    0.100739
     10          6           0       -0.445305    0.432482    1.931664
     11          6           0       -1.531201   -0.663660    1.978043
     12          6           0       -2.488062   -0.713742    0.805432
     13          6           0       -2.406681   -1.738313   -0.146315
     14          6           0       -3.284957   -1.781613   -1.231346
     15          6           0       -4.263689   -0.797927   -1.379770
     16          6           0       -4.361366    0.224803   -0.432313
     17          6           0       -3.483612    0.262332    0.651224
     18          8           0        2.979042   -0.336494   -0.892805
     19          8           0        1.543291   -2.380326   -1.270636
     20          1           0        3.954927   -1.883048    1.299300
     21          1           0        4.114995   -2.957157   -0.131876
     22          1           0        2.867877   -3.299263    1.105264
     23          1           0        0.620568   -1.688368    1.137784
     24          1           0       -1.061291    0.856252   -0.681737
     25          1           0        0.459344    0.290076   -1.448465
     26          1           0        1.578719    2.078978    1.924722
     27          1           0        2.628860    1.288660    0.688133
     28          1           0       -0.922047    1.415856    1.871608
     29          1           0        0.102264    0.407058    2.879262
     30          1           0       -2.097792   -0.485305    2.898112
     31          1           0       -1.069450   -1.648552    2.107151
     32          1           0       -1.646066   -2.506074   -0.038364
     33          1           0       -3.204121   -2.583968   -1.957683
     34          1           0       -4.947968   -0.829641   -2.222016
     35          1           0       -5.125431    0.989724   -0.533762
     36          1           0       -3.572545    1.056649    1.386445
 ---------------------------------------------------------------------

 SCF Done:  E(RHF) =  -1613.18692331     A.U. after   16 cycles
 E2 =    -0.2992516903D+01 EUMP2 =    -0.16161794402083D+04

 The electronic state is 1-A.
 Alpha  occ. eigenvalues --  -92.24310 -92.18793 -20.57545 -20.57511 -20.54869
 Alpha  occ. eigenvalues --  -20.54626 -15.63713 -11.34237 -11.30738 -11.28367
 Alpha  occ. eigenvalues --  -11.28197 -11.27115 -11.26937 -11.26544 -11.25633
 Alpha  occ. eigenvalues --  -11.25595 -11.25415 -11.25339 -11.25265  -9.21182
 Alpha  occ. eigenvalues --   -9.16072  -6.89702  -6.89664  -6.89556  -6.84561
 Alpha  occ. eigenvalues --   -6.84468  -6.84405  -1.47424  -1.42899  -1.35173
 Alpha  occ. eigenvalues --   -1.31620  -1.27564  -1.17368  -1.14901  -1.08886
 Alpha  occ. eigenvalues --   -1.06259  -1.02954  -1.01890  -0.97547  -0.93473
 Alpha  occ. eigenvalues --   -0.87648  -0.84290  -0.84230  -0.80792  -0.77856
 Alpha  occ. eigenvalues --   -0.74499  -0.71824  -0.70487  -0.69738  -0.67581
 Alpha  occ. eigenvalues --   -0.66718  -0.66523  -0.65875  -0.64633  -0.63095
 Alpha  occ. eigenvalues --   -0.62920  -0.62054  -0.61381  -0.60585  -0.59699
 Alpha  occ. eigenvalues --   -0.59529  -0.59134  -0.57599  -0.55472  -0.54168
 Alpha  occ. eigenvalues --   -0.53240  -0.52034  -0.50977  -0.50237  -0.49959
 Alpha  occ. eigenvalues --   -0.49496  -0.48645  -0.47519  -0.47038  -0.46186
 Alpha  occ. eigenvalues --   -0.45154  -0.44699  -0.41081  -0.35041  -0.34192
 Alpha virt. eigenvalues --    0.01572   0.03035   0.03293   0.03618   0.04380
 Alpha virt. eigenvalues --    0.04876   0.05296   0.05716   0.06078   0.06610
 Alpha virt. eigenvalues --    0.07232   0.07662   0.08075   0.08165   0.09078

 Mulliken charges:
               1
     1  C    0.187990
     2  S    2.553052
     3  N   -1.205377
     4  C    0.496626
     5  C    0.515547
     6  S    2.913017
     7  C    0.145459
     8  O   -1.246863
     9  O   -1.280809
    10  C    0.636464
    11  C    0.338453
    12  C    0.786612
    13  C    0.682086
    14  C    0.032586
    15  C    0.701788
    16  C    0.192088
    17  C    0.537770
    18  O   -1.212312
    19  O   -1.211086
    20  H    0.022804
    21  H    0.041447
    22  H   -0.002511
    23  H   -0.055018
    24  H   -0.239845
    25  H   -0.440913
    26  H   -0.266712
    27  H   -0.188812
    28  H   -0.100807
    29  H   -0.134777
    30  H   -0.141607
    31  H   -0.185808
    32  H   -0.758902
    33  H   -0.495847
    34  H   -0.447397
    35  H   -0.481893
    36  H   -0.686495
 Sum of Mulliken charges =  -0.00000

 Dipole moment (field-independent basis, Debye):
    X=             -0.8309    Y=             -6.7376    Z=              6.6819  Tot=              9.5254
 Quadrupole moment (field-independent basis, Debye-Ang):
   XX=           -119.1390   YY=           -146.0750   ZZ=           -128.3098
   XY=            -13.9152   XZ=             17.5047   YZ=              2.2729

 Normal termination of Gaussian 16 at Mon Sep 21 08:56:06 2020.
