 Gaussian 16, Revision B.01,

 ----------------------------------------------------------------------
 #p b3lyp/6-31G(d) opt freq NoSymm scf=(MaxCycle=2000,NoVarAcc,NoIncFoc
 k) scrf=(iefpcm,read,solvent=water)
 ----------------------------------------------------------------------

 -------------------
 SM38_m1.a.9.pdb.xyz
 -------------------
 Symbolic Z-matrix:
 Charge = -1 Multiplicity = 1

 SCF Done:  E(RB3LYP) =  -1619.00730158     A.U. after   13 cycles
 SCF Done:  E(RB3LYP) =  -1619.00730584     A.U. after    8 cycles
 SCF Done:  E(RB3LYP) =  -1619.00730863     A.U. after    8 cycles
 SCF Done:  E(RB3LYP) =  -1619.00730671     A.U. after    7 cycles
 SCF Done:  E(RB3LYP) =  -1619.00730525     A.U. after    7 cycles
 SCF Done:  E(RB3LYP) =  -1619.00730580     A.U. after    7 cycles
 Optimization completed.
    -- Stationary point found.
 Normal termination of Gaussian 16 at Tue Sep 22 01:53:10 2020.

 --------------------------------------------------------------------
 #P Geom=AllCheck Guess=TCheck SCRF=Check GenChk RB3LYP/6-31G(d) Freq
 --------------------------------------------------------------------

 Structure from the checkpoint file:  "SM38_m1.a.9.pdb.xyz.mst.a.w.chk"
 -------------------
 SM38_m1.a.9.pdb.xyz
 -------------------
 Charge = -1 Multiplicity = 1

 SCF Done:  E(RB3LYP) =  -1619.00730580     A.U. after    1 cycles

  Exact polarizability: 237.637 -31.131 234.434  20.388  21.489 223.761
 Approx polarizability: 265.869 -34.720 258.003  18.116  26.407 264.429

                      1                      2                      3
                      A                      A                      A
 Frequencies --     25.0372                30.1460                34.6253
 Red. masses --      7.3622                 4.6390                 5.3470
 Frc consts  --      0.0027                 0.0025                 0.0038
 IR Inten    --      2.6473                 2.9972                 3.3926

                      4                      5                      6
                      A                      A                      A
 Frequencies --     45.0301                51.6606               103.2489
 Red. masses --      5.9522                 6.1487                 6.9150
 Frc consts  --      0.0071                 0.0097                 0.0434
 IR Inten    --      3.5364                 0.9021                 0.9198

                      7                      8                      9
                      A                      A                      A
 Frequencies --    115.9941               138.6214               176.7472
 Red. masses --      4.5192                 6.5023                 6.6295
 Frc consts  --      0.0358                 0.0736                 0.1220
 IR Inten    --      4.9343                 2.6062                38.4826

                     10                     11                     12
                      A                      A                      A
 Frequencies --    190.7341               217.2636               236.0430
 Red. masses --      5.2375                 1.0493                 4.2319
 Frc consts  --      0.1123                 0.0292                 0.1389
 IR Inten    --      2.1755                 0.0116                 4.3117

                     13                     14                     15
                      A                      A                      A
 Frequencies --    269.6830               278.2595               309.2259
 Red. masses --      5.1390                 3.2322                 3.4934
 Frc consts  --      0.2202                 0.1475                 0.1968
 IR Inten    --      7.7971                 5.2970                 1.3001

                     16                     17                     18
                      A                      A                      A
 Frequencies --    330.1491               336.4199               361.6842
 Red. masses --      4.1003                 3.3877                 2.3963
 Frc consts  --      0.2633                 0.2259                 0.1847
 IR Inten    --     17.1294                20.6756                 5.9569

                     19                     20                     21
                      A                      A                      A
 Frequencies --    388.6042               416.9544               420.9892
 Red. masses --      2.5831                 2.9428                 3.2115
 Frc consts  --      0.2298                 0.3014                 0.3354
 IR Inten    --     11.8118                 0.8727                35.5888

                     22                     23                     24
                      A                      A                      A
 Frequencies --    424.5627               464.2006               482.9818
 Red. masses --      3.9960                 4.3473                 7.8157
 Frc consts  --      0.4244                 0.5519                 1.0742
 IR Inten    --     45.4881                22.1011                12.1970

                     25                     26                     27
                      A                      A                      A
 Frequencies --    502.9369               530.3364               547.8946
 Red. masses --      4.4634                 5.3608                 4.7032
 Frc consts  --      0.6652                 0.8883                 0.8318
 IR Inten    --     21.6273                15.7278                25.4442

                     28                     29                     30
                      A                      A                      A
 Frequencies --    579.3571               595.7428               634.4361
 Red. masses --      5.1044                 3.4455                 6.3218
 Frc consts  --      1.0094                 0.7205                 1.4992
 IR Inten    --     65.4112                63.1865                 0.1667

                     31                     32                     33
                      A                      A                      A
 Frequencies --    670.1291               713.5208               733.5899
 Red. masses --      4.2786                 1.8942                 5.3916
 Frc consts  --      1.1321                 0.5682                 1.7095
 IR Inten    --     24.2881                41.7988                33.7379

                     34                     35                     36
                      A                      A                      A
 Frequencies --    753.3453               760.3400               777.4976
 Red. masses --      3.8236                 2.5262                 2.9179
 Frc consts  --      1.2785                 0.8605                 1.0393
 IR Inten    --     72.7267                40.7617                28.7128

                     37                     38                     39
                      A                      A                      A
 Frequencies --    792.4060               830.6729               846.8303
 Red. masses --      3.0211                 1.5785                 3.0365
 Frc consts  --      1.1177                 0.6417                 1.2830
 IR Inten    --      3.6399                 3.3869                72.5928

                     40                     41                     42
                      A                      A                      A
 Frequencies --    860.6730               871.2653               911.7157
 Red. masses --      1.2696                 2.6747                 2.1362
 Frc consts  --      0.5541                 1.1963                 1.0462
 IR Inten    --      1.4285                24.6217                11.1458

                     43                     44                     45
                      A                      A                      A
 Frequencies --    928.6683               973.2802               977.5965
 Red. masses --      1.7529                 1.3582                 2.3106
 Frc consts  --      0.8907                 0.7580                 1.3010
 IR Inten    --      9.3426                 0.0902                12.8424

                     46                     47                     48
                      A                      A                      A
 Frequencies --    983.4609               984.2417              1001.1163
 Red. masses --      1.3986                 1.7741                 1.2535
 Frc consts  --      0.7970                 1.0126                 0.7402
 IR Inten    --      1.4655                72.5910                 0.6171

                     49                     50                     51
                      A                      A                      A
 Frequencies --   1014.3657              1017.0779              1018.8059
 Red. masses --      3.6824                 2.5298                 2.2165
 Frc consts  --      2.2324                 1.5419                 1.3555
 IR Inten    --      9.4755                27.7775                40.4253

                     52                     53                     54
                      A                      A                      A
 Frequencies --   1038.1655              1052.1089              1057.7615
 Red. masses --      1.1810                 3.4095                 2.1488
 Frc consts  --      0.7500                 2.2237                 1.4165
 IR Inten    --     23.4193               322.2184                 7.8840

                     55                     56                     57
                      A                      A                      A
 Frequencies --   1070.1883              1076.9515              1111.2238
 Red. masses --      2.7949                 4.2307                 1.8676
 Frc consts  --      1.8860                 2.8911                 1.3588
 IR Inten    --    185.8868               487.4902               118.9029

                     58                     59                     60
                      A                      A                      A
 Frequencies --   1130.4016              1147.4374              1183.4516
 Red. masses --      6.8816                 3.1724                 1.3568
 Frc consts  --      5.1809                 2.4609                 1.1196
 IR Inten    --    406.9285               102.7452                23.3985

                     61                     62                     63
                      A                      A                      A
 Frequencies --   1185.4097              1206.3314              1209.5608
 Red. masses --      1.0938                 1.5110                 1.1586
 Frc consts  --      0.9056                 1.2955                 0.9987
 IR Inten    --      0.0669                90.2375                 2.0472

                     64                     65                     66
                      A                      A                      A
 Frequencies --   1228.6319              1238.3984              1245.6940
 Red. masses --      2.4054                 1.6557                 7.3987
 Frc consts  --      2.1393                 1.4961                 6.7644
 IR Inten    --      1.7080                86.1287               387.3168

                     67                     68                     69
                      A                      A                      A
 Frequencies --   1276.9084              1298.8493              1351.4727
 Red. masses --      2.1181                 1.2976                 4.1147
 Frc consts  --      2.0348                 1.2898                 4.4279
 IR Inten    --    110.7285                52.9236                 1.7380

                     70                     71                     72
                      A                      A                      A
 Frequencies --   1366.1336              1376.7555              1388.6387
 Red. masses --      1.3836                 1.2194                 1.3283
 Frc consts  --      1.5214                 1.3618                 1.5091
 IR Inten    --      2.4689                13.0854                13.4048

                     73                     74                     75
                      A                      A                      A
 Frequencies --   1402.5755              1460.5681              1473.9970
 Red. masses --      1.3962                 1.0902                 1.0918
 Frc consts  --      1.6182                 1.3702                 1.3976
 IR Inten    --     10.6913                24.3228                10.5898

                     76                     77                     78
                      A                      A                      A
 Frequencies --   1475.4652              1482.4412              1495.5657
 Red. masses --      1.0514                 1.0477                 2.0103
 Frc consts  --      1.3485                 1.3566                 2.6492
 IR Inten    --      8.2304                 6.1626                 8.5675

                     79                     80                     81
                      A                      A                      A
 Frequencies --   1501.0934              1514.9280              1542.8555
 Red. masses --      1.0881                 1.1497                 2.1915
 Frc consts  --      1.4445                 1.5545                 3.0736
 IR Inten    --      3.2253                 8.6481                18.3256

                     82                     83                     84
                      A                      A                      A
 Frequencies --   1637.0138              1657.7336              3038.7971
 Red. masses --      5.3923                 5.5824                 1.0634
 Frc consts  --      8.5138                 9.0385                 5.7857
 IR Inten    --      1.2201                 9.3638                20.4568

                     85                     86                     87
                      A                      A                      A
 Frequencies --   3049.4014              3082.3971              3087.2064
 Red. masses --      1.0650                 1.1033                 1.0305
 Frc consts  --      5.8346                 6.1763                 5.7868
 IR Inten    --     86.0153                44.5060                 4.5027

                     88                     89                     90
                      A                      A                      A
 Frequencies --   3112.4696              3113.1317              3128.9993
 Red. masses --      1.0592                 1.0923                 1.0577
 Frc consts  --      6.0454                 6.2373                 6.1014
 IR Inten    --      5.2205                55.3709                11.5320

                     91                     92                     93
                      A                      A                      A
 Frequencies --   3174.9800              3181.3849              3182.5818
 Red. masses --      1.0869                 1.0862                 1.1064
 Frc consts  --      6.4555                 6.4775                 6.6025
 IR Inten    --     17.6339                 4.5494                 7.8987

                     94                     95                     96
                      A                      A                      A
 Frequencies --   3189.3368              3190.1872              3190.2975
 Red. masses --      1.1116                 1.1076                 1.0900
 Frc consts  --      6.6618                 6.6412                 6.5366
 IR Inten    --      9.3979                 5.7447                18.3650

                     97                     98                     99
                      A                      A                      A
 Frequencies --   3197.1591              3207.2251              3208.8674
 Red. masses --      1.0940                 1.1112                 1.0978
 Frc consts  --      6.5888                 6.7342                 6.6599
 IR Inten    --     79.1761                 3.0501                32.2843

 - Thermochemistry -
 -------------------
 Temperature   298.150 Kelvin.  Pressure   1.00000 Atm.
 Atom     1 has atomic number  6 and mass  12.00000

 Molecular mass:   302.05208 amu.
 Principal axes and moments of inertia in atomic units:
                           1         2         3
     Eigenvalues --  4465.776877216.881199495.07642
           X            0.99842  -0.05506   0.01145
           Y            0.05496   0.99844   0.00935
           Z           -0.01195  -0.00871   0.99989
 This molecule is an asymmetric top.
 Rotational symmetry number  1.
 Warning -- assumption of classical behavior for rotation
           may cause significant error
 Rotational temperatures (Kelvin)      0.01940     0.01200     0.00912
 Rotational constants (GHZ):           0.40413     0.25007     0.19007
 Zero-point vibrational energy     717037.5 (Joules/Mol)
                                  171.37607 (Kcal/Mol)
 Warning -- explicit consideration of  29 degrees of freedom as
           vibrations may cause significant error
 Vibrational temperatures:     36.02    43.37    49.82    64.79    74.33
          (Kelvin)            148.55   166.89   199.45   254.30   274.42
                              312.59   339.61   388.01   400.35   444.91
                              475.01   484.03   520.38   559.11   599.90
                              605.71   610.85   667.88   694.90   723.61
                              763.04   788.30   833.57   857.14   912.81
                              964.17  1026.60  1055.47  1083.90  1093.96
                             1118.65  1140.10  1195.15  1218.40  1238.32
                             1253.56  1311.76  1336.15  1400.33  1406.54
                             1414.98  1416.10  1440.38  1459.45  1463.35
                             1465.83  1493.69  1513.75  1521.88  1539.76
                             1549.49  1598.80  1626.40  1650.91  1702.72
                             1705.54  1735.64  1740.29  1767.73  1781.78
                             1792.28  1837.19  1868.75  1944.47  1965.56
                             1980.84  1997.94  2017.99  2101.43  2120.75
                             2122.87  2132.90  2151.79  2159.74  2179.64
                             2219.82  2355.30  2385.11  4372.15  4387.41
                             4434.88  4441.80  4478.15  4479.10  4501.93
                             4568.09  4577.30  4579.03  4588.74  4589.97
                             4590.13  4600.00  4614.48  4616.84

 Zero-point correction=                           0.273105 (Hartree/Particle)
 Thermal correction to Energy=                    0.291528
 Thermal correction to Enthalpy=                  0.292472
 Thermal correction to Gibbs Free Energy=         0.224447
 Sum of electronic and zero-point Energies=          -1618.734201
 Sum of electronic and thermal Energies=             -1618.715778
 Sum of electronic and thermal Enthalpies=           -1618.714833
 Sum of electronic and thermal Free Energies=        -1618.782859

                     E (Thermal)             CV                S
                      KCal/Mol        Cal/Mol-Kelvin    Cal/Mol-Kelvin
 Total                  182.937             70.740            143.172
 Electronic               0.000              0.000              0.000
 Translational            0.889              2.981             43.013
 Rotational               0.889              2.981             34.081
 Vibrational            181.159             64.779             66.079
 Vibration     1          0.593              1.985              6.188
 Vibration     2          0.594              1.984              5.820
 Vibration     3          0.594              1.983              5.545
 Vibration     4          0.595              1.979              5.025
 Vibration     5          0.596              1.977              4.753
 Vibration     6          0.605              1.947              3.392
 Vibration     7          0.608              1.936              3.166
 Vibration     8          0.614              1.915              2.823
 Vibration     9          0.628              1.871              2.362
 Vibration    10          0.634              1.853              2.221
 Vibration    11          0.646              1.815              1.982
 Vibration    12          0.655              1.786              1.833
 Vibration    13          0.674              1.729              1.598
 Vibration    14          0.679              1.714              1.544
 Vibration    15          0.699              1.656              1.366
 Vibration    16          0.713              1.615              1.259
 Vibration    17          0.717              1.603              1.229
 Vibration    18          0.736              1.551              1.115
 Vibration    19          0.757              1.495              1.005
 Vibration    20          0.780              1.433              0.902
 Vibration    21          0.783              1.425              0.889
 Vibration    22          0.787              1.417              0.877
 Vibration    23          0.822              1.329              0.754
 Vibration    24          0.839              1.288              0.702
 Vibration    25          0.858              1.243              0.651
 Vibration    26          0.885              1.183              0.586
 Vibration    27          0.903              1.144              0.549
 Vibration    28          0.936              1.076              0.487
 Vibration    29          0.954              1.041              0.457

                           ! Non-Optimized Parameters !
 Normal termination of Gaussian 16 at Tue Sep 22 02:04:47 2020.

 ----------------------------------------------------------------------
 #p b3lyp/6-31G(d) scrf=(iefpcm,read,solvent=water) geom=allcheck guess
 =read
 ----------------------------------------------------------------------

 Structure from the checkpoint file:  "SM38_m1.a.9.pdb.xyz.mst.a.w.chk"
 -------------------
 SM38_m1.a.9.pdb.xyz
 -------------------
 Charge = -1 Multiplicity = 1

 SCF Done:  E(RB3LYP) =  -1619.00730827     A.U. after    6 cycles
 Normal termination of Gaussian 16 at Tue Sep 22 02:05:23 2020.

 -----------------------------
 #p B3LYP/6-31G* geom=allcheck
 -----------------------------

 Structure from the checkpoint file:  "SM38_m1.a.9.pdb.xyz.mst.a.w.chk"
 -------------------
 SM38_m1.a.9.pdb.xyz
 -------------------
 Charge = -1 Multiplicity = 1

 SCF Done:  E(RB3LYP) =  -1618.84253552     A.U. after   15 cycles

 The electronic state is 1-A.
 Alpha  occ. eigenvalues --  -88.94668 -88.93060 -19.00351 -19.00194 -18.95358
 Alpha  occ. eigenvalues --  -18.95310 -14.13864 -10.11939 -10.10210 -10.10076
 Alpha  occ. eigenvalues --  -10.10011 -10.09929 -10.09613 -10.09142 -10.08199
 Alpha  occ. eigenvalues --  -10.07824 -10.07674 -10.07488 -10.07378  -7.97748
 Alpha  occ. eigenvalues --   -7.95444  -5.94195  -5.94103  -5.93997  -5.91911
 Alpha  occ. eigenvalues --   -5.91860  -5.91817  -0.95195  -0.91094  -0.84862
 Alpha  occ. eigenvalues --   -0.79323  -0.76237  -0.75230  -0.68568  -0.68059
 Alpha  occ. eigenvalues --   -0.65049  -0.62737  -0.60952  -0.57364  -0.54964
 Alpha  occ. eigenvalues --   -0.51176  -0.49731  -0.47203  -0.44221  -0.41906
 Alpha  occ. eigenvalues --   -0.39956  -0.37150  -0.36650  -0.35498  -0.35110
 Alpha  occ. eigenvalues --   -0.34504  -0.32854  -0.32543  -0.31919  -0.31478
 Alpha  occ. eigenvalues --   -0.31151  -0.30654  -0.30054  -0.28759  -0.28465
 Alpha  occ. eigenvalues --   -0.27819  -0.27013  -0.26176  -0.25168  -0.24622
 Alpha  occ. eigenvalues --   -0.23495  -0.22147  -0.21457  -0.19110  -0.17317
 Alpha  occ. eigenvalues --   -0.16626  -0.15878  -0.15633  -0.15489  -0.14516
 Alpha  occ. eigenvalues --   -0.13237  -0.12955  -0.11573  -0.09960  -0.05464
 Alpha virt. eigenvalues --    0.08917   0.09276   0.17737   0.18679   0.19519
 Alpha virt. eigenvalues --    0.20382   0.20473   0.21283   0.21389   0.23268
 Alpha virt. eigenvalues --    0.23375   0.24300   0.24680   0.25394   0.25567

 Mulliken charges:
               1
     1  C   -0.596928
     2  S    1.074237
     3  N   -0.661207
     4  C    0.201784
     5  C   -0.512926
     6  S    1.073658
     7  C   -0.507609
     8  O   -0.543204
     9  O   -0.577694
    10  C   -0.265912
    11  C   -0.335269
    12  C    0.157444
    13  C   -0.174733
    14  C   -0.127470
    15  C   -0.134791
    16  C   -0.127706
    17  C   -0.177896
    18  O   -0.612464
    19  O   -0.612170
    20  H    0.166752
    21  H    0.165143
    22  H    0.163947
    23  H    0.187146
    24  H    0.241710
    25  H    0.158625
    26  H    0.245657
    27  H    0.139194
    28  H    0.123471
    29  H    0.111770
    30  H    0.164779
    31  H    0.149398
    32  H    0.115160
    33  H    0.104607
    34  H    0.107866
    35  H    0.115628
 Sum of Mulliken charges =  -1.00000

 Dipole moment (field-independent basis, Debye):
    X=             -7.8269    Y=             -3.5048    Z=              3.8479  Tot=              9.3995
 Quadrupole moment (field-independent basis, Debye-Ang):
   XX=           -160.6762   YY=           -153.3657   ZZ=           -135.7324
   XY=             -1.7064   XZ=             11.5773   YZ=              4.7640

 Normal termination of Gaussian 16 at Tue Sep 22 02:06:12 2020.
 Gaussian 16:  ES64L-G16RevB.01 20-Dec-2017

 ----------------------------------------------------------------------
 #p mp2/aug-cc-pVDZ scf=(MaxCycle=2000,NoVarAcc,NoIncFock) maxdisk=120G
 B geom=allcheck
 ----------------------------------------------------------------------

 Structure from the checkpoint file:  "SM38_m1.a.9.pdb.xyz.mst.a.w.chk"
 -------------------
 SM38_m1.a.9.pdb.xyz
 -------------------
 Charge = -1 Multiplicity = 1

                         Standard orientation:
 ---------------------------------------------------------------------
 Center     Atomic      Atomic             Coordinates (Angstroms)
 Number     Number       Type             X           Y           Z
 ---------------------------------------------------------------------
      1          6           0        2.624766   -3.145500    0.271944
      2         16           0        2.343608   -1.438751   -0.229879
      3          7           0        1.182692   -1.028390    0.775447
      4          6           0        0.615569    0.303231    0.763096
      5          6           0        0.037867    0.833659   -0.623984
      6         16           0        0.845032    2.438437   -0.364515
      7          6           0        1.637897    1.504065    0.974181
      8          8           0        1.763171    2.852424   -1.452834
      9          8           0       -0.102276    3.457651    0.154591
     10          6           0       -0.445940    0.372681    1.887561
     11          6           0       -1.515236   -0.740589    1.912686
     12          6           0       -2.512769   -0.736973    0.770369
     13          6           0       -2.446126   -1.689375   -0.256964
     14          6           0       -3.365395   -1.679645   -1.309953
     15          6           0       -4.373140   -0.713729   -1.352841
     16          6           0       -4.456324    0.238830   -0.332504
     17          6           0       -3.536641    0.222953    0.718079
     18          8           0        3.653856   -0.722436   -0.034792
     19          8           0        1.955545   -1.486880   -1.683502
     20          1           0        2.928894   -3.169468    1.319554
     21          1           0        3.421639   -3.541354   -0.361601
     22          1           0        1.708671   -3.720652    0.128817
     23          1           0       -1.044261    0.910233   -0.721243
     24          1           0        0.479848    0.327240   -1.482603
     25          1           0        1.607420    2.016106    1.938308
     26          1           0        2.658675    1.239555    0.695888
     27          1           0       -0.931575    1.356449    1.855516
     28          1           0        0.097562    0.323097    2.839786
     29          1           0       -2.063284   -0.631023    2.857706
     30          1           0       -1.007283   -1.708725    1.953194
     31          1           0       -1.662902   -2.442797   -0.234187
     32          1           0       -3.293669   -2.428163   -2.094848
     33          1           0       -5.089800   -0.704556   -2.169644
     34          1           0       -5.241338    0.990410   -0.351370
     35          1           0       -3.615204    0.963692    1.511177
 ---------------------------------------------------------------------

 SCF Done:  E(RHF) =  -1612.64997519     A.U. after   16 cycles
