 Gaussian 16, Revision B.01,

 ----------------------------------------------------------------------
 #p b3lyp/6-31G(d) opt freq NoSymm scf=(MaxCycle=2000,NoVarAcc,NoIncFoc
 k) scrf=(iefpcm,read,solvent=water)
 ----------------------------------------------------------------------

 -------------------
 SM38_m1.a.8.pdb.xyz
 -------------------
 Symbolic Z-matrix:
 Charge = -1 Multiplicity = 1

 SCF Done:  E(RB3LYP) =  -1619.00530256     A.U. after   13 cycles
 SCF Done:  E(RB3LYP) =  -1619.00530055     A.U. after    8 cycles
 SCF Done:  E(RB3LYP) =  -1619.00525992     A.U. after   10 cycles
 SCF Done:  E(RB3LYP) =  -1619.00531789     A.U. after    9 cycles
 SCF Done:  E(RB3LYP) =  -1619.00530824     A.U. after    8 cycles
 SCF Done:  E(RB3LYP) =  -1619.00531080     A.U. after    7 cycles
 SCF Done:  E(RB3LYP) =  -1619.00531872     A.U. after    8 cycles
 SCF Done:  E(RB3LYP) =  -1619.00530791     A.U. after    8 cycles
 SCF Done:  E(RB3LYP) =  -1619.00530618     A.U. after    7 cycles
 SCF Done:  E(RB3LYP) =  -1619.00531866     A.U. after    8 cycles
 SCF Done:  E(RB3LYP) =  -1619.00530822     A.U. after    8 cycles
 Optimization completed.
    -- Stationary point found.
 Normal termination of Gaussian 16 at Tue Sep 22 02:01:32 2020.

 --------------------------------------------------------------------
 #P Geom=AllCheck Guess=TCheck SCRF=Check GenChk RB3LYP/6-31G(d) Freq
 --------------------------------------------------------------------

 Structure from the checkpoint file:  "SM38_m1.a.8.pdb.xyz.mst.a.w.chk"
 -------------------
 SM38_m1.a.8.pdb.xyz
 -------------------
 Charge = -1 Multiplicity = 1

 SCF Done:  E(RB3LYP) =  -1619.00530822     A.U. after    1 cycles

  Exact polarizability: 276.494  31.985 188.092   0.861  -9.194 231.600
 Approx polarizability: 297.497  30.173 214.004   5.503 -10.934 276.105

                      1                      2                      3
                      A                      A                      A
 Frequencies --     20.7131                40.1989                44.7972
 Red. masses --      4.5777                 5.0344                 5.4673
 Frc consts  --      0.0012                 0.0048                 0.0065
 IR Inten    --      0.0812                 6.5394                 3.2823

                      4                      5                      6
                      A                      A                      A
 Frequencies --     51.1067                68.2855               104.7291
 Red. masses --      4.9919                 5.7460                 7.3067
 Frc consts  --      0.0077                 0.0158                 0.0472
 IR Inten    --      0.7885                 8.4373                 0.2506

                      7                      8                      9
                      A                      A                      A
 Frequencies --    122.1617               146.1928               167.0329
 Red. masses --      6.6879                 5.6766                 5.6818
 Frc consts  --      0.0588                 0.0715                 0.0934
 IR Inten    --     12.6653                 2.5415                 9.6453

                     10                     11                     12
                      A                      A                      A
 Frequencies --    211.0742               226.9850               233.5433
 Red. masses --      5.9440                 1.4220                 2.4671
 Frc consts  --      0.1560                 0.0432                 0.0793
 IR Inten    --      3.4744                 0.9649                 1.5365

                     13                     14                     15
                      A                      A                      A
 Frequencies --    241.3160               287.1290               299.2092
 Red. masses --      3.2379                 3.9493                 3.6508
 Frc consts  --      0.1111                 0.1918                 0.1926
 IR Inten    --     12.6789                29.5300                 3.2757

                     16                     17                     18
                      A                      A                      A
 Frequencies --    314.1816               328.2496               351.3494
 Red. masses --      3.3583                 2.1725                 2.5848
 Frc consts  --      0.1953                 0.1379                 0.1880
 IR Inten    --      2.2888                 2.4849                 4.5792

                     19                     20                     21
                      A                      A                      A
 Frequencies --    387.2146               411.8344               418.4819
 Red. masses --      4.2457                 2.7081                 2.9646
 Frc consts  --      0.3751                 0.2706                 0.3059
 IR Inten    --     35.6613                10.6621                 0.4786

                     22                     23                     24
                      A                      A                      A
 Frequencies --    426.0073               465.5420               483.1763
 Red. masses --      4.3112                 4.7309                 7.9883
 Frc consts  --      0.4610                 0.6041                 1.0988
 IR Inten    --     45.0728                16.5781                46.9346

                     25                     26                     27
                      A                      A                      A
 Frequencies --    508.1857               524.9519               556.0772
 Red. masses --      3.8194                 8.8305                 4.4360
 Frc consts  --      0.5812                 1.4338                 0.8082
 IR Inten    --     22.4530                66.8171                38.1498

                     28                     29                     30
                      A                      A                      A
 Frequencies --    578.9379               601.3878               635.1192
 Red. masses --      2.8677                 6.1187                 6.3443
 Frc consts  --      0.5663                 1.3038                 1.5078
 IR Inten    --     11.3677                49.7119                 0.4443

                     31                     32                     33
                      A                      A                      A
 Frequencies --    672.8970               713.2826               747.4051
 Red. masses --      4.2216                 1.9677                 3.3990
 Frc consts  --      1.1262                 0.5898                 1.1187
 IR Inten    --     29.5356                32.7036                66.1177

                     34                     35                     36
                      A                      A                      A
 Frequencies --    751.2998               756.1919               774.2125
 Red. masses --      3.3887                 5.9986                 2.0011
 Frc consts  --      1.1270                 2.0210                 0.7067
 IR Inten    --     43.6464                45.6957                39.6138

                     37                     38                     39
                      A                      A                      A
 Frequencies --    795.5097               830.6784               837.7675
 Red. masses --      3.6090                 1.7302                 3.0664
 Frc consts  --      1.3456                 0.7034                 1.2680
 IR Inten    --     22.9967                25.4785                51.9691

                     40                     41                     42
                      A                      A                      A
 Frequencies --    860.8827               871.9296               916.0561
 Red. masses --      1.2566                 2.7307                 1.5043
 Frc consts  --      0.5487                 1.2232                 0.7437
 IR Inten    --      0.1708                 7.3744                 6.4205

                     43                     44                     45
                      A                      A                      A
 Frequencies --    933.6947               971.8144               981.8150
 Red. masses --      1.9678                 1.3545                 2.2152
 Frc consts  --      1.0107                 0.7537                 1.2581
 IR Inten    --      6.9010                 0.1294                90.9375

                     46                     47                     48
                      A                      A                      A
 Frequencies --    984.5540               988.4008               997.7581
 Red. masses --      1.4138                 2.2955                 1.3371
 Frc consts  --      0.8074                 1.3213                 0.7842
 IR Inten    --      0.5561                27.5073                 1.4139

                     49                     50                     51
                      A                      A                      A
 Frequencies --   1001.3316              1015.3007              1031.7958
 Red. masses --      1.9734                 6.1213                 2.0102
 Frc consts  --      1.1658                 3.7178                 1.2609
 IR Inten    --     12.2330                 0.6193                34.9900

                     52                     53                     54
                      A                      A                      A
 Frequencies --   1036.4367              1055.9100              1059.5367
 Red. masses --      1.2590                 2.5047                 3.0390
 Frc consts  --      0.7969                 1.6454                 2.0101
 IR Inten    --     19.8967               113.3372               238.1383

                     55                     56                     57
                      A                      A                      A
 Frequencies --   1073.9312              1078.6014              1113.7284
 Red. masses --      2.4138                 4.0922                 1.7722
 Frc consts  --      1.6402                 2.8050                 1.2951
 IR Inten    --     91.5830               571.4238                15.7093

                     58                     59                     60
                      A                      A                      A
 Frequencies --   1129.9695              1135.7594              1180.3441
 Red. masses --      5.4405                 5.5533                 1.3434
 Frc consts  --      4.0928                 4.2206                 1.1027
 IR Inten    --    278.6033               281.2667                 9.3383

                     61                     62                     63
                      A                      A                      A
 Frequencies --   1185.6394              1208.0868              1217.2116
 Red. masses --      1.0954                 1.1541                 1.4181
 Frc consts  --      0.9072                 0.9924                 1.2379
 IR Inten    --      0.3417                 0.1282                97.9244

                     64                     65                     66
                      A                      A                      A
 Frequencies --   1222.9582              1233.5455              1252.3847
 Red. masses --      1.9868                 2.7148                 2.9196
 Frc consts  --      1.7508                 2.4339                 2.6981
 IR Inten    --    136.9498               138.9739               249.0993

                     67                     68                     69
                      A                      A                      A
 Frequencies --   1257.1252              1320.9391              1352.4901
 Red. masses --      2.2911                 1.3743                 3.4592
 Frc consts  --      2.1333                 1.4128                 3.7282
 IR Inten    --     30.8366                81.2735                 1.9423

                     70                     71                     72
                      A                      A                      A
 Frequencies --   1364.4630              1376.7245              1395.2875
 Red. masses --      1.4313                 1.2194                 1.3646
 Frc consts  --      1.5701                 1.3617                 1.5653
 IR Inten    --      0.0500                14.7277                 0.2388

                     73                     74                     75
                      A                      A                      A
 Frequencies --   1397.1257              1456.4118              1468.5812
 Red. masses --      1.3541                 1.0937                 1.0948
 Frc consts  --      1.5573                 1.3668                 1.3912
 IR Inten    --      6.3710                26.8836                 3.7156

                     76                     77                     78
                      A                      A                      A
 Frequencies --   1476.7579              1485.2619              1497.0435
 Red. masses --      1.0510                 1.0481                 1.9627
 Frc consts  --      1.3504                 1.3622                 2.5916
 IR Inten    --      5.5281                 5.4067                 6.5320

                     79                     80                     81
                      A                      A                      A
 Frequencies --   1501.6103              1506.7521              1542.5149
 Red. masses --      1.1171                 1.1181                 2.1967
 Frc consts  --      1.4841                 1.4956                 3.0794
 IR Inten    --      2.2844                10.0562                20.2762

                     82                     83                     84
                      A                      A                      A
 Frequencies --   1637.2467              1657.8367              3038.8767
 Red. masses --      5.4154                 5.5783                 1.0643
 Frc consts  --      8.5528                 9.0331                 5.7910
 IR Inten    --      1.2060                11.8762                26.3057

                     85                     86                     87
                      A                      A                      A
 Frequencies --   3052.6708              3080.3576              3085.3226
 Red. masses --      1.0635                 1.1004                 1.0305
 Frc consts  --      5.8393                 6.1521                 5.7795
 IR Inten    --     69.8174                44.9319                 5.7046

                     88                     89                     90
                      A                      A                      A
 Frequencies --   3108.2734              3119.5075              3123.3499
 Red. masses --      1.0980                 1.0568                 1.0585
 Frc consts  --      6.2501                 6.0590                 6.0836
 IR Inten    --     32.0640                 5.6407                 5.7331

                     91                     92                     93
                      A                      A                      A
 Frequencies --   3174.7245              3179.9765              3180.9300
 Red. masses --      1.0869                 1.0863                 1.1065
 Frc consts  --      6.4544                 6.4719                 6.5965
 IR Inten    --     18.1934                 5.5750                 7.3379

                     94                     95                     96
                      A                      A                      A
 Frequencies --   3188.7240              3189.8123              3191.3406
 Red. masses --      1.1076                 1.0899                 1.1116
 Frc consts  --      6.6352                 6.5339                 6.6702
 IR Inten    --      5.4651                18.6761                 3.0830

                     97                     98                     99
                      A                      A                      A
 Frequencies --   3196.2956              3201.4099              3208.5232
 Red. masses --      1.0941                 1.1099                 1.0977
 Frc consts  --      6.5855                 6.7024                 6.6581
 IR Inten    --     84.3571                 6.3502                33.2006

 - Thermochemistry -
 -------------------
 Temperature   298.150 Kelvin.  Pressure   1.00000 Atm.
 Atom     1 has atomic number  6 and mass  12.00000

 Molecular mass:   302.05208 amu.
 Principal axes and moments of inertia in atomic units:
                           1         2         3
     Eigenvalues --  3390.468388487.81317**********
           X            0.99858   0.03632  -0.03906
           Y           -0.03302   0.99608   0.08210
           Z            0.04189  -0.08069   0.99586
 This molecule is an asymmetric top.
 Rotational symmetry number  1.
 Warning -- assumption of classical behavior for rotation
           may cause significant error
 Rotational temperatures (Kelvin)      0.02555     0.01020     0.00836
 Rotational constants (GHZ):           0.53230     0.21263     0.17417
 Zero-point vibrational energy     717089.8 (Joules/Mol)
                                  171.38859 (Kcal/Mol)
 Warning -- explicit consideration of  29 degrees of freedom as
           vibrations may cause significant error
 Vibrational temperatures:     29.80    57.84    64.45    73.53    98.25
          (Kelvin)            150.68   175.76   210.34   240.32   303.69
                              326.58   336.02   347.20   413.11   430.50
                              452.04   472.28   505.51   557.12   592.54
                              602.10   612.93   669.81   695.18   731.17
                              755.29   800.07   832.96   865.26   913.79
                              968.15  1026.25  1075.35  1080.95  1087.99
                             1113.92  1144.56  1195.16  1205.36  1238.62
                             1254.51  1318.00  1343.38  1398.22  1412.61
                             1416.55  1422.09  1435.55  1440.69  1460.79
                             1484.52  1491.20  1519.22  1524.44  1545.15
                             1551.87  1602.41  1625.77  1634.10  1698.25
                             1705.87  1738.17  1751.30  1759.56  1774.80
                             1801.90  1808.72  1900.54  1945.93  1963.16
                             1980.80  2007.51  2010.15  2095.45  2112.96
                             2124.73  2136.96  2153.91  2160.48  2167.88
                             2219.33  2355.63  2385.26  4372.27  4392.11
                             4431.95  4439.09  4472.11  4488.28  4493.80
                             4567.72  4575.28  4576.65  4587.86  4589.43
                             4591.63  4598.76  4606.11  4616.35

 Zero-point correction=                           0.273125 (Hartree/Particle)
 Thermal correction to Energy=                    0.291486
 Thermal correction to Enthalpy=                  0.292431
 Thermal correction to Gibbs Free Energy=         0.225144
 Sum of electronic and zero-point Energies=          -1618.732183
 Sum of electronic and thermal Energies=             -1618.713822
 Sum of electronic and thermal Enthalpies=           -1618.712878
 Sum of electronic and thermal Free Energies=        -1618.780164

                     E (Thermal)             CV                S
                      KCal/Mol        Cal/Mol-Kelvin    Cal/Mol-Kelvin
 Total                  182.911             70.765            141.617
 Electronic               0.000              0.000              0.000
 Translational            0.889              2.981             43.013
 Rotational               0.889              2.981             34.055
 Vibrational            181.133             64.804             64.549
 Vibration     1          0.593              1.986              6.565
 Vibration     2          0.594              1.981              5.249
 Vibration     3          0.595              1.979              5.035
 Vibration     4          0.595              1.977              4.774
 Vibration     5          0.598              1.969              4.202
 Vibration     6          0.605              1.945              3.364
 Vibration     7          0.610              1.931              3.066
 Vibration     8          0.617              1.907              2.721
 Vibration     9          0.624              1.883              2.469
 Vibration    10          0.643              1.824              2.034
 Vibration    11          0.651              1.800              1.903
 Vibration    12          0.654              1.790              1.852
 Vibration    13          0.658              1.777              1.793
 Vibration    14          0.684              1.698              1.491
 Vibration    15          0.692              1.675              1.421
 Vibration    16          0.702              1.647              1.340
 Vibration    17          0.711              1.619              1.269
 Vibration    18          0.728              1.572              1.160
 Vibration    19          0.756              1.497              1.011
 Vibration    20          0.776              1.445              0.920
 Vibration    21          0.781              1.430              0.897
 Vibration    22          0.788              1.414              0.872
 Vibration    23          0.823              1.326              0.750
 Vibration    24          0.839              1.287              0.702
 Vibration    25          0.863              1.232              0.638
 Vibration    26          0.880              1.195              0.599
 Vibration    27          0.912              1.126              0.532
 Vibration    28          0.936              1.077              0.487
 Vibration    29          0.960              1.029              0.447

 Optimization completed.
    -- Stationary point found.
 Normal termination of Gaussian 16 at Tue Sep 22 02:14:42 2020.

 ----------------------------------------------------------------------
 #p b3lyp/6-31G(d) scrf=(iefpcm,read,solvent=water) geom=allcheck guess
 =read
 ----------------------------------------------------------------------

 Structure from the checkpoint file:  "SM38_m1.a.8.pdb.xyz.mst.a.w.chk"
 -------------------
 SM38_m1.a.8.pdb.xyz
 -------------------
 Charge = -1 Multiplicity = 1

 SCF Done:  E(RB3LYP) =  -1619.00527894     A.U. after    7 cycles
 Normal termination of Gaussian 16 at Tue Sep 22 02:15:28 2020.

 -----------------------------
 #p B3LYP/6-31G* geom=allcheck
 -----------------------------

 Structure from the checkpoint file:  "SM38_m1.a.8.pdb.xyz.mst.a.w.chk"
 -------------------
 SM38_m1.a.8.pdb.xyz
 -------------------
 Charge = -1 Multiplicity = 1

 SCF Done:  E(RB3LYP) =  -1618.83770542     A.U. after   15 cycles

 The electronic state is 1-A.
 Alpha  occ. eigenvalues --  -88.95880 -88.92489 -19.01576 -19.01499 -18.94822
 Alpha  occ. eigenvalues --  -18.94777 -14.13465 -10.12209 -10.09484 -10.09087
 Alpha  occ. eigenvalues --  -10.09055 -10.09009 -10.08966 -10.08456 -10.08431
 Alpha  occ. eigenvalues --  -10.08397 -10.08374 -10.06940 -10.06652  -7.98963
 Alpha  occ. eigenvalues --   -7.94878  -5.95411  -5.95319  -5.95209  -5.91340
 Alpha  occ. eigenvalues --   -5.91293  -5.91253  -0.96520  -0.90574  -0.86202
 Alpha  occ. eigenvalues --   -0.78743  -0.75868  -0.74855  -0.68629  -0.67603
 Alpha  occ. eigenvalues --   -0.64008  -0.62029  -0.60371  -0.58572  -0.54499
 Alpha  occ. eigenvalues --   -0.50275  -0.49476  -0.47094  -0.44666  -0.40962
 Alpha  occ. eigenvalues --   -0.40432  -0.37434  -0.36125  -0.35901  -0.34963
 Alpha  occ. eigenvalues --   -0.34865  -0.32419  -0.32133  -0.31695  -0.31249
 Alpha  occ. eigenvalues --   -0.30853  -0.30690  -0.30081  -0.29290  -0.27559
 Alpha  occ. eigenvalues --   -0.27414  -0.26708  -0.25633  -0.24956  -0.24052
 Alpha  occ. eigenvalues --   -0.22845  -0.22674  -0.21907  -0.19477  -0.18589
 Alpha  occ. eigenvalues --   -0.16980  -0.16626  -0.16005  -0.14580  -0.14020
 Alpha  occ. eigenvalues --   -0.13028  -0.12522  -0.10938  -0.09526  -0.05041
 Alpha virt. eigenvalues --    0.10107   0.10482   0.17459   0.17932   0.18642
 Alpha virt. eigenvalues --    0.19144   0.19542   0.21255   0.22145   0.23207
 Alpha virt. eigenvalues --    0.23641   0.24490   0.25157   0.25830   0.25980

 Mulliken charges:
               1
     1  C   -0.607039
     2  S    1.092719
     3  N   -0.668751
     4  C    0.189790
     5  C   -0.477909
     6  S    1.069493
     7  C   -0.498391
     8  O   -0.546598
     9  O   -0.570744
    10  C   -0.267530
    11  C   -0.353459
    12  C    0.215245
    13  C   -0.153287
    14  C   -0.119709
    15  C   -0.131942
    16  C   -0.133884
    17  C   -0.163183
    18  O   -0.615627
    19  O   -0.622345
    20  H    0.176668
    21  H    0.161142
    22  H    0.164605
    23  H    0.169117
    24  H    0.195144
    25  H    0.178491
    26  H    0.241036
    27  H    0.126859
    28  H    0.175728
    29  H    0.125493
    30  H    0.121796
    31  H    0.109383
    32  H    0.102885
    33  H    0.097622
    34  H    0.100997
    35  H    0.116184
 Sum of Mulliken charges =  -1.00000

 Dipole moment (field-independent basis, Debye):
    X=             -6.1687    Y=             -4.3051    Z=              2.3805  Tot=              7.8901
 Quadrupole moment (field-independent basis, Debye-Ang):
   XX=           -176.6920   YY=           -151.5696   ZZ=           -129.3364
   XY=              2.2957   XZ=             -4.1584   YZ=              5.7997

 Normal termination of Gaussian 16 at Tue Sep 22 02:16:25 2020.
 Gaussian 16:  ES64L-G16RevB.01 20-Dec-2017

 ----------------------------------------------------------------------
 #p mp2/aug-cc-pVDZ scf=(MaxCycle=2000,NoVarAcc,NoIncFock) maxdisk=120G
 B geom=allcheck
 ----------------------------------------------------------------------

 Structure from the checkpoint file:  "SM38_m1.a.8.pdb.xyz.mst.a.w.chk"
 -------------------
 SM38_m1.a.8.pdb.xyz
 -------------------
 Charge = -1 Multiplicity = 1

                         Standard orientation:
 ---------------------------------------------------------------------
 Center     Atomic      Atomic             Coordinates (Angstroms)
 Number     Number       Type             X           Y           Z
 ---------------------------------------------------------------------
      1          6           0       -1.346414    2.839488    1.008398
      2         16           0       -0.301284    2.019964   -0.209066
      3          7           0        0.256136    0.810540    0.661277
      4          6           0        1.100488   -0.188090    0.026606
      5          6           0        1.978428   -0.876382    1.142794
      6         16           0        3.474495   -0.664683    0.131570
      7          6           0        2.329717    0.373048   -0.816188
      8          8           0        4.567386    0.074974    0.803916
      9          8           0        3.833500   -1.909760   -0.591196
     10          6           0        0.358211   -1.257175   -0.820203
     11          6           0       -0.688023   -2.126929   -0.077950
     12          6           0       -2.092384   -1.565191    0.039086
     13          6           0       -2.921649   -1.480169   -1.090478
     14          6           0       -4.224902   -0.988680   -0.993248
     15          6           0       -4.729656   -0.576088    0.243343
     16          6           0       -3.919215   -0.662764    1.378176
     17          6           0       -2.614570   -1.154139    1.273497
     18          8           0       -1.195290    1.659322   -1.363712
     19          8           0        0.735156    3.030792   -0.623844
     20          1           0       -2.142684    2.159208    1.314964
     21          1           0       -1.769501    3.724632    0.528092
     22          1           0       -0.741716    3.130971    1.868534
     23          1           0        1.769225   -1.917989    1.390734
     24          1           0        2.051082   -0.266344    2.044524
     25          1           0        2.335750    0.165756   -1.888074
     26          1           0        2.526944    1.426470   -0.620056
     27          1           0        1.114085   -1.932955   -1.240114
     28          1           0       -0.113859   -0.749397   -1.667626
     29          1           0       -0.318708   -2.378676    0.923348
     30          1           0       -0.751780   -3.079235   -0.619902
     31          1           0       -2.542635   -1.806151   -2.056877
     32          1           0       -4.848165   -0.932677   -1.882042
     33          1           0       -5.744620   -0.195983    0.321806
     34          1           0       -4.302297   -0.352481    2.347006
     35          1           0       -1.991639   -1.217611    2.162378
 ---------------------------------------------------------------------

 SCF Done:  E(RHF) =  -1612.64631924     A.U. after   16 cycles
