 Gaussian 16, Revision B.01,

 ----------------------------------------------------------------------
 #p b3lyp/6-31G(d) opt freq NoSymm scf=(MaxCycle=2000,NoVarAcc,NoIncFoc
 k) scrf=(iefpcm,read,solvent=water)
 ----------------------------------------------------------------------

 -------------------
 SM39_m1.a.2.pdb.xyz
 -------------------
 Symbolic Z-matrix:
 Charge = -1 Multiplicity = 1

 SCF Done:  E(RB3LYP) =  -1810.66887204     A.U. after   13 cycles
 SCF Done:  E(RB3LYP) =  -1810.66743584     A.U. after   11 cycles
 SCF Done:  E(RB3LYP) =  -1810.66794749     A.U. after   11 cycles
 SCF Done:  E(RB3LYP) =  -1810.66886714     A.U. after    7 cycles
 SCF Done:  E(RB3LYP) =  -1810.66820290     A.U. after   11 cycles
 SCF Done:  E(RB3LYP) =  -1810.66854667     A.U. after   10 cycles
 SCF Done:  E(RB3LYP) =  -1810.66885180     A.U. after   10 cycles
 SCF Done:  E(RB3LYP) =  -1810.66886682     A.U. after    9 cycles
 SCF Done:  E(RB3LYP) =  -1810.66886739     A.U. after    8 cycles
 SCF Done:  E(RB3LYP) =  -1810.66841621     A.U. after   11 cycles
 SCF Done:  E(RB3LYP) =  -1810.66848848     A.U. after   11 cycles
 SCF Done:  E(RB3LYP) =  -1810.66848775     A.U. after    6 cycles
 SCF Done:  E(RB3LYP) =  -1810.66884307     A.U. after   10 cycles
 SCF Done:  E(RB3LYP) =  -1810.66848774     A.U. after   10 cycles
 SCF Done:  E(RB3LYP) =  -1810.66884308     A.U. after   10 cycles
 SCF Done:  E(RB3LYP) =  -1810.66848786     A.U. after   10 cycles
 Optimization completed on the basis of negligible forces.
    -- Stationary point found.
 Normal termination of Gaussian 16 at Thu Sep 24 02:27:00 2020.

 --------------------------------------------------------------------
 #P Geom=AllCheck Guess=TCheck SCRF=Check GenChk RB3LYP/6-31G(d) Freq
 --------------------------------------------------------------------

 Structure from the checkpoint file:  "SM39_m1.a.2.pdb.xyz.mst.a.w.chk"
 -------------------
 SM39_m1.a.2.pdb.xyz
 -------------------
 Charge = -1 Multiplicity = 1

 SCF Done:  E(RB3LYP) =  -1810.66848786     A.U. after    1 cycles

  Exact polarizability: 332.995  11.712 312.253  10.374 -56.545 260.242
 Approx polarizability: 381.147   4.707 348.076  11.063 -59.506 305.111

                      1                      2                      3
                      A                      A                      A
 Frequencies --     21.7700                24.7639                33.0740
 Red. masses --      5.7991                 5.2597                 4.9816
 Frc consts  --      0.0016                 0.0019                 0.0032
 IR Inten    --      2.3186                 1.1408                 0.1359

                      4                      5                      6
                      A                      A                      A
 Frequencies --     41.1402                43.4105                51.7356
 Red. masses --      6.7117                 5.5781                 6.1182
 Frc consts  --      0.0067                 0.0062                 0.0096
 IR Inten    --      7.2757                 0.4879                 4.7558

                      7                      8                      9
                      A                      A                      A
 Frequencies --     58.5476               104.9634               134.5849
 Red. masses --      3.7702                 6.9966                 6.8086
 Frc consts  --      0.0076                 0.0454                 0.0727
 IR Inten    --      0.8135                 0.3545                 1.1557

                     10                     11                     12
                      A                      A                      A
 Frequencies --    152.4440               161.3008               190.3808
 Red. masses --      6.1763                 6.5378                 5.4015
 Frc consts  --      0.0846                 0.1002                 0.1153
 IR Inten    --      1.5130                 4.5384                11.7263

                     13                     14                     15
                      A                      A                      A
 Frequencies --    201.5164               250.1377               262.7938
 Red. masses --      5.6317                 4.4519                 3.3263
 Frc consts  --      0.1347                 0.1641                 0.1353
 IR Inten    --      3.7101                18.7476                 2.5365

                     16                     17                     18
                      A                      A                      A
 Frequencies --    271.0746               298.1495               302.8015
 Red. masses --     10.6683                 3.0793                 5.1890
 Frc consts  --      0.4619                 0.1613                 0.2803
 IR Inten    --      4.8739                 4.6306                 5.8744

                     19                     20                     21
                      A                      A                      A
 Frequencies --    335.0494               351.7988               370.4677
 Red. masses --      3.6063                 2.6101                 5.2740
 Frc consts  --      0.2385                 0.1903                 0.4265
 IR Inten    --      8.6942                 1.2787                15.5255

                     22                     23                     24
                      A                      A                      A
 Frequencies --    374.7458               404.4545               414.6286
 Red. masses --      5.8260                 2.6569                 2.9820
 Frc consts  --      0.4821                 0.2561                 0.3020
 IR Inten    --     28.8002                 8.5772                 1.1264

                     25                     26                     27
                      A                      A                      A
 Frequencies --    421.7926               445.0481               457.9665
 Red. masses --      2.9969                 4.1119                 4.5502
 Frc consts  --      0.3141                 0.4798                 0.5623
 IR Inten    --      0.0837                13.2900                25.2262

                     28                     29                     30
                      A                      A                      A
 Frequencies --    478.2923               495.3224               523.8126
 Red. masses --      4.8842                 3.4553                 4.0624
 Frc consts  --      0.6583                 0.4995                 0.6567
 IR Inten    --     18.7133                11.7210                28.3497

                     31                     32                     33
                      A                      A                      A
 Frequencies --    554.8777               567.3040               591.5164
 Red. masses --      8.6440                 3.1844                 7.5124
 Frc consts  --      1.5680                 0.6038                 1.5487
 IR Inten    --    120.2190                 3.6457               156.3199

                     34                     35                     36
                      A                      A                      A
 Frequencies --    599.2179               628.3042               634.0729
 Red. masses --      6.8659                 6.4454                 6.3919
 Frc consts  --      1.4525                 1.4991                 1.5141
 IR Inten    --    129.4883                 0.1764                 0.0722

                     37                     38                     39
                      A                      A                      A
 Frequencies --    687.3531               704.9558               712.6173
 Red. masses --      4.9324                 2.5493                 3.8685
 Frc consts  --      1.3730                 0.7464                 1.1575
 IR Inten    --     25.6935                50.1032                27.1973

                     40                     41                     42
                      A                      A                      A
 Frequencies --    717.0443               741.6372               744.1889
 Red. masses --      2.9841                 5.3465                 1.8867
 Frc consts  --      0.9040                 1.7326                 0.6156
 IR Inten    --     44.3975                58.8110                42.8971

                     43                     44                     45
                      A                      A                      A
 Frequencies --    766.9813               770.1129               798.8888
 Red. masses --      1.5893                 2.0468                 3.6213
 Frc consts  --      0.5508                 0.7152                 1.3617
 IR Inten    --     54.6206                34.0872                12.4314

                     46                     47                     48
                      A                      A                      A
 Frequencies --    824.9925               845.2077               864.4792
 Red. masses --      1.5741                 3.4737                 1.2503
 Frc consts  --      0.6312                 1.4621                 0.5505
 IR Inten    --     11.0609               111.6648                 0.1452

                     49                     50                     51
                      A                      A                      A
 Frequencies --    867.7490               873.9571               916.8221
 Red. masses --      1.2451                 2.6846                 1.5240
 Frc consts  --      0.5524                 1.2081                 0.7548
 IR Inten    --      0.6153                16.3644                19.8103

                     52                     53                     54
                      A                      A                      A
 Frequencies --    941.6299               943.2171               978.0297
 Red. masses --      1.3632                 1.9459                 1.3547
 Frc consts  --      0.7121                 1.0200                 0.7635
 IR Inten    --      4.3030                 6.2840                 0.0910

                     55                     56                     57
                      A                      A                      A
 Frequencies --    986.5932               992.8489               997.3859
 Red. masses --      1.3584                 2.6311                 2.7306
 Frc consts  --      0.7790                 1.5281                 1.6004
 IR Inten    --      1.9565                76.1249                11.6487

                     58                     59                     60
                      A                      A                      A
 Frequencies --   1003.4166              1012.0923              1015.6348
 Red. masses --      1.4260                 1.2613                 5.9121
 Frc consts  --      0.8460                 0.7612                 3.5931
 IR Inten    --      2.9735                 0.5757                 1.9922

                     61                     62                     63
                      A                      A                      A
 Frequencies --   1016.6302              1032.0797              1043.1975
 Red. masses --      5.6054                 1.3640                 1.9330
 Frc consts  --      3.4134                 0.8560                 1.2394
 IR Inten    --      5.9069                41.3296                49.7624

                     64                     65                     66
                      A                      A                      A
 Frequencies --   1049.7020              1055.7367              1061.2168
 Red. masses --      2.7216                 2.5912                 2.6147
 Frc consts  --      1.7669                 1.7016                 1.7350
 IR Inten    --     40.7909               144.8915                87.4315

                     67                     68                     69
                      A                      A                      A
 Frequencies --   1073.6197              1086.8128              1104.7439
 Red. masses --      2.0362                 5.3083                 1.5787
 Frc consts  --      1.3828                 3.6942                 1.1352
 IR Inten    --     67.5185               494.0888                13.1954

                     70                     71                     72
                      A                      A                      A
 Frequencies --   1115.3701              1118.9994              1154.3430
 Red. masses --      3.0619                 1.7734                 4.3461
 Frc consts  --      2.2443                 1.3083                 3.4121
 IR Inten    --    103.8773                20.0016               122.0382

                     73                     74                     75
                      A                      A                      A
 Frequencies --   1181.2905              1185.8957              1187.0788
 Red. masses --      3.0454                 1.0937                 1.8671
 Frc consts  --      2.5039                 0.9062                 1.5502
 IR Inten    --    337.6658                 0.5680               155.2163

                     76                     77                     78
                      A                      A                      A
 Frequencies --   1191.1457              1201.1173              1206.5639
 Red. masses --      1.1040                 1.1686                 1.1551
 Frc consts  --      0.9229                 0.9933                 0.9907
 IR Inten    --      0.6619                10.6080                 0.3586

                     79                     80                     81
                      A                      A                      A
 Frequencies --   1220.0083              1228.2468              1239.1321
 Red. masses --      1.3893                 2.4003                 2.2033
 Frc consts  --      1.2184                 2.1335                 1.9933
 IR Inten    --     39.9097                15.4268               303.2439

                     82                     83                     84
                      A                      A                      A
 Frequencies --   1254.7873              1265.1807              1314.8175
 Red. masses --      2.1509                 2.3559                 1.5477
 Frc consts  --      1.9954                 2.2218                 1.5764
 IR Inten    --    201.2517                35.2171               113.4912

                     85                     86                     87
                      A                      A                      A
 Frequencies --   1336.4019              1344.8460              1358.0610
 Red. masses --      1.5500                 2.2403                 4.4434
 Frc consts  --      1.6310                 2.3872                 4.8284
 IR Inten    --      3.3052                 2.7213                 1.4376

                     88                     89                     90
                      A                      A                      A
 Frequencies --   1363.1164              1391.2260              1405.5187
 Red. masses --      2.0637                 1.4165                 1.4386
 Frc consts  --      2.2593                 1.6153                 1.6745
 IR Inten    --      0.2627                 6.9824                 0.5937

                     91                     92                     93
                      A                      A                      A
 Frequencies --   1444.2162              1467.5590              1487.6259
 Red. masses --      1.1007                 1.1021                 2.1345
 Frc consts  --      1.3526                 1.3985                 2.7832
 IR Inten    --     35.1553                 6.6900                19.1687

                     94                     95                     96
                      A                      A                      A
 Frequencies --   1492.7056              1494.6129              1501.8063
 Red. masses --      1.2562                 1.1781                 1.5254
 Frc consts  --      1.6492                 1.5505                 2.0271
 IR Inten    --      2.1303                 5.1104                11.3664

                     97                     98                     99
                      A                      A                      A
 Frequencies --   1523.1369              1543.3358              1639.2588
 Red. masses --      2.0783                 2.2261                 5.7361
 Frc consts  --      2.8408                 3.1240                 9.0816
 IR Inten    --      6.3010                22.2305                 0.0494

                    100                    101                    102
                      A                      A                      A
 Frequencies --   1640.7317              1644.3014              1660.4318
 Red. masses --      5.4391                 5.5087                 5.6766
 Frc consts  --      8.6269                 8.7754                 9.2211
 IR Inten    --      2.0789                 0.1746                16.7419

                    103                    104                    105
                      A                      A                      A
 Frequencies --   3041.2128              3066.1851              3086.2576
 Red. masses --      1.0658                 1.0617                 1.0953
 Frc consts  --      5.8081                 5.8809                 6.1467
 IR Inten    --     42.0959                26.2852                53.0753

                    106                    107                    108
                      A                      A                      A
 Frequencies --   3107.9991              3129.4756              3133.3023
 Red. masses --      1.1029                 1.0572                 1.0572
 Frc consts  --      6.2771                 6.1000                 6.1151
 IR Inten    --     47.8907                14.3876                 6.6716

                    109                    110                    111
                      A                      A                      A
 Frequencies --   3190.1205              3193.3254              3202.8690
 Red. masses --      1.0863                 1.0865                 1.1109
 Frc consts  --      6.5136                 6.5276                 6.7143
 IR Inten    --     20.2089                 7.0767                 3.4739

                    112                    113                    114
                      A                      A                      A
 Frequencies --   3204.1672              3205.3342              3209.6086
 Red. masses --      1.0898                 1.0858                 1.0940
 Frc consts  --      6.5921                 6.5727                 6.6402
 IR Inten    --     14.0997                 0.8028                83.7192

                    115                    116                    117
                      A                      A                      A
 Frequencies --   3212.5612              3213.6581              3223.2032
 Red. masses --      1.0894                 1.1109                 1.0974
 Frc consts  --      6.6243                 6.7595                 6.7174
 IR Inten    --     28.2072                 9.0638                32.9068

                    118                    119                    120
                      A                      A                      A
 Frequencies --   3225.0602              3231.1417              3241.0244
 Red. masses --      1.0928                 1.0949                 1.0926
 Frc consts  --      6.6967                 6.7348                 6.7621
 IR Inten    --     25.3367                24.4949                12.6487

 - Thermochemistry -
 -------------------
 Temperature   298.150 Kelvin.  Pressure   1.00000 Atm.
 Atom     1 has atomic number  8 and mass  15.99491

 Molecular mass:   364.06773 amu.
 Principal axes and moments of inertia in atomic units:
                           1         2         3
     Eigenvalues --  7513.573769697.89308**********
           X            0.98963   0.14171  -0.02340
           Y           -0.14227   0.98953  -0.02446
           Z            0.01969   0.02753   0.99943
 This molecule is an asymmetric top.
 Rotational symmetry number  1.
 Warning -- assumption of classical behavior for rotation
           may cause significant error
 Rotational temperatures (Kelvin)      0.01153     0.00893     0.00631
 Rotational constants (GHZ):           0.24020     0.18610     0.13144
 Zero-point vibrational energy     857747.7 (Joules/Mol)
                                  205.00661 (Kcal/Mol)
 Warning -- explicit consideration of  34 degrees of freedom as
           vibrations may cause significant error
 Vibrational temperatures:     31.32    35.63    47.59    59.19    62.46
          (Kelvin)             74.44    84.24   151.02   193.64   219.33
                              232.08   273.92   289.94   359.89   378.10
                              390.02   428.97   435.66   482.06   506.16
                              533.02   539.18   581.92   596.56   606.87
                              640.32   658.91   688.16   712.66   753.65
                              798.35   816.22   851.06   862.14   903.99
                              912.29   988.95  1014.27  1025.30  1031.67
                             1067.05  1070.72  1103.52  1108.02  1149.42
                             1186.98  1216.07  1243.79  1248.50  1257.43
                             1319.10  1354.80  1357.08  1407.17  1419.49
                             1428.49  1435.02  1443.69  1456.18  1461.27
                             1462.70  1484.93  1500.93  1510.29  1518.97
                             1526.85  1544.70  1563.68  1589.48  1604.77
                             1609.99  1660.84  1699.61  1706.24  1707.94
                             1713.79  1728.14  1735.98  1755.32  1767.17
                             1782.83  1805.36  1820.31  1891.73  1922.78
                             1934.93  1953.95  1961.22  2001.66  2022.23
                             2077.91  2111.49  2140.36  2147.67  2150.41
                             2160.76  2191.45  2220.52  2358.53  2360.65
                             2365.78  2388.99  4375.63  4411.56  4440.44
                             4471.72  4502.62  4508.12  4589.87  4594.48
                             4608.21  4610.08  4611.76  4617.91  4622.16
                             4623.74  4637.47  4640.14  4648.89  4663.11

 Zero-point correction=                           0.326699 (Hartree/Particle)
 Thermal correction to Energy=                    0.348294
 Thermal correction to Enthalpy=                  0.349238
 Thermal correction to Gibbs Free Energy=         0.273387
 Sum of electronic and zero-point Energies=          -1810.341789
 Sum of electronic and thermal Energies=             -1810.320194
 Sum of electronic and thermal Enthalpies=           -1810.319250
 Sum of electronic and thermal Free Energies=        -1810.395101

                     E (Thermal)             CV                S
                      KCal/Mol        Cal/Mol-Kelvin    Cal/Mol-Kelvin
 Total                  218.558             84.143            159.642
 Electronic               0.000              0.000              0.000
 Translational            0.889              2.981             43.570
 Rotational               0.889              2.981             35.258
 Vibrational            216.780             78.181             80.815
 Vibration     1          0.593              1.985              6.466
 Vibration     2          0.593              1.985              6.210
 Vibration     3          0.594              1.983              5.636
 Vibration     4          0.594              1.981              5.203
 Vibration     5          0.595              1.980              5.097
 Vibration     6          0.596              1.977              4.750
 Vibration     7          0.596              1.974              4.506
 Vibration     8          0.605              1.945              3.360
 Vibration     9          0.613              1.919              2.879
 Vibration    10          0.619              1.900              2.641
 Vibration    11          0.622              1.890              2.534
 Vibration    12          0.634              1.853              2.224
 Vibration    13          0.638              1.838              2.119
 Vibration    14          0.663              1.763              1.730
 Vibration    15          0.670              1.741              1.643
 Vibration    16          0.675              1.727              1.589
 Vibration    17          0.691              1.677              1.427
 Vibration    18          0.694              1.668              1.401
 Vibration    19          0.716              1.606              1.236
 Vibration    20          0.728              1.572              1.158
 Vibration    21          0.742              1.533              1.078
 Vibration    22          0.746              1.524              1.060
 Vibration    23          0.770              1.461              0.946
 Vibration    24          0.778              1.438              0.910
 Vibration    25          0.784              1.423              0.886
 Vibration    26          0.804              1.372              0.811
 Vibration    27          0.816              1.343              0.772
 Vibration    28          0.835              1.298              0.715
 Vibration    29          0.851              1.260              0.670
 Vibration    30          0.879              1.197              0.601
 Vibration    31          0.910              1.129              0.534
 Vibration    32          0.923              1.102              0.509
 Vibration    33          0.949              1.050              0.464
 Vibration    34          0.957              1.033              0.451

 Optimization completed.
    -- Stationary point found.
 Normal termination of Gaussian 16 at Thu Sep 24 02:54:56 2020.

 ----------------------------------------------------------------------
 #p b3lyp/6-31G(d) scrf=(iefpcm,read,solvent=water) geom=allcheck guess
 =read
 ----------------------------------------------------------------------

 Structure from the checkpoint file:  "SM39_m1.a.2.pdb.xyz.mst.a.w.chk"
 -------------------
 SM39_m1.a.2.pdb.xyz
 -------------------
 Charge = -1 Multiplicity = 1

 SCF Done:  E(RB3LYP) =  -1810.66841900     A.U. after    7 cycles
 Normal termination of Gaussian 16 at Thu Sep 24 02:56:12 2020.

 -----------------------------
 #p B3LYP/6-31G* geom=allcheck
 -----------------------------

 Structure from the checkpoint file:  "SM39_m1.a.2.pdb.xyz.mst.a.w.chk"
 -------------------
 SM39_m1.a.2.pdb.xyz
 -------------------
 Charge = -1 Multiplicity = 1

 SCF Done:  E(RB3LYP) =  -1810.57091104     A.U. after   15 cycles
 Normal termination of Gaussian 16 at Thu Sep 24 02:57:46 2020.
 Gaussian 16:  ES64L-G16RevB.01 20-Dec-2017

 ----------------------------------------------------------------------
 #p mp2/aug-cc-pVDZ scf=(MaxCycle=2000,NoVarAcc,NoIncFock) maxdisk=120G
 B geom=allcheck
 ----------------------------------------------------------------------

 Structure from the checkpoint file:  "SM39_m1.a.2.pdb.xyz.mst.a.w.chk"
 -------------------
 SM39_m1.a.2.pdb.xyz
 -------------------
 Charge = -1 Multiplicity = 1

                         Standard orientation:
 ---------------------------------------------------------------------
 Center     Atomic      Atomic             Coordinates (Angstroms)
 Number     Number       Type             X           Y           Z
 ---------------------------------------------------------------------
      1          8           0       -2.028362    0.697921    1.953649
      2         16           0       -0.601784    0.920267    1.551987
      3          7           0        0.149255   -0.345412    0.971000
      4          6           0       -0.555030   -1.347729    0.201503
      5          6           0       -1.477206   -0.866697   -0.993384
      6         16           0       -2.744770   -2.068077   -0.499680
      7          6           0       -1.692991   -2.129586    0.973146
      8          8           0       -4.088219   -1.487573   -0.278320
      9          8           0       -2.664097   -3.315759   -1.297725
     10          6           0        0.467769   -2.382325   -0.309423
     11          6           0        1.540430   -1.869338   -1.288139
     12          6           0        2.776827   -1.230336   -0.685649
     13          6           0        3.490250   -1.848271    0.351595
     14          6           0        4.660275   -1.280212    0.856858
     15          6           0        5.146140   -0.080753    0.330426
     16          6           0        4.451268    0.542198   -0.707925
     17          6           0        3.279511   -0.031494   -1.208085
     18          6           0       -0.699224    2.211616    0.281872
     19          6           0       -1.888879    2.918198    0.096737
     20          6           0       -1.943130    3.941963   -0.852091
     21          6           0       -0.812097    4.259387   -1.605386
     22          6           0        0.377799    3.549752   -1.413573
     23          6           0        0.436464    2.524361   -0.470523
     24          8           0        0.261678    1.510988    2.612343
     25          1           0       -1.099502   -1.007979   -2.006105
     26          1           0       -1.873479    0.140804   -0.868696
     27          1           0       -1.459623   -3.137914    1.317237
     28          1           0       -2.141116   -1.517361    1.753305
     29          1           0       -0.097033   -3.180464   -0.802028
     30          1           0        0.944972   -2.834104    0.566663
     31          1           0        1.091014   -1.167836   -1.999874
     32          1           0        1.866261   -2.728565   -1.888452
     33          1           0        3.128077   -2.783398    0.768559
     34          1           0        5.194501   -1.775957    1.661295
     35          1           0        6.055763    0.360790    0.724175
     36          1           0        4.818208    1.473080   -1.129177
     37          1           0        2.743968    0.454394   -2.018743
     38          1           0       -2.756575    2.655381    0.689599
     39          1           0       -2.867934    4.489758   -1.000489
     40          1           0       -0.856220    5.054774   -2.341963
     41          1           0        1.257698    3.793355   -2.000079
     42          1           0        1.354038    1.965071   -0.326476
 ---------------------------------------------------------------------

 SCF Done:  E(RHF) =  -1803.16770491     A.U. after   16 cycles
 E2 =    -0.3666299001D+01 EUMP2 =    -0.18068340039141D+04

 The electronic state is 1-A.
 Alpha  occ. eigenvalues --  -92.07100 -92.05724 -20.43911 -20.43603 -20.39686
 Alpha  occ. eigenvalues --  -20.38632 -15.38991 -11.18976 -11.16066 -11.16019
 Alpha  occ. eigenvalues --  -11.15886 -11.15778 -11.15722 -11.15627 -11.15622
 Alpha  occ. eigenvalues --  -11.15527 -11.15275 -11.15229 -11.15053 -11.15028
 Alpha  occ. eigenvalues --  -11.14876 -11.14778 -11.14586 -11.13297  -9.04469
 Alpha  occ. eigenvalues --   -9.02414  -6.72962  -6.72863  -6.72775  -6.70977
 Alpha  occ. eigenvalues --   -6.70887  -6.70845  -1.31741  -1.28219  -1.20567
 Alpha  occ. eigenvalues --   -1.15957  -1.08265  -1.06580  -1.06458  -0.98856
 Alpha  occ. eigenvalues --   -0.97061  -0.93338  -0.92883  -0.92678  -0.89983
 Alpha  occ. eigenvalues --   -0.84906  -0.80952  -0.76501  -0.74066  -0.73939
 Alpha  occ. eigenvalues --   -0.72512  -0.69721  -0.67845  -0.63785  -0.60944
 Alpha  occ. eigenvalues --   -0.60610  -0.57499  -0.56661  -0.55087  -0.54435
 Alpha  occ. eigenvalues --   -0.53979  -0.53619  -0.53209  -0.51933  -0.51267
 Alpha  occ. eigenvalues --   -0.50831  -0.49991  -0.49670  -0.49008  -0.48765
 Alpha  occ. eigenvalues --   -0.47568  -0.46841  -0.44061  -0.43379  -0.43024
 Alpha  occ. eigenvalues --   -0.41824  -0.41007  -0.40589  -0.40387  -0.39086
 Alpha  occ. eigenvalues --   -0.38445  -0.37697  -0.37173  -0.36603  -0.34312
 Alpha  occ. eigenvalues --   -0.33971  -0.33426  -0.31397  -0.30835  -0.29735
 Alpha  occ. eigenvalues --   -0.25968  -0.25142  -0.24807  -0.24670  -0.22929
 Alpha  occ. eigenvalues --   -0.21453
 Alpha virt. eigenvalues --    0.09369   0.09887   0.10506   0.10769   0.11413
 Alpha virt. eigenvalues --    0.11853   0.12213   0.12982   0.13476   0.14168
 Alpha virt. eigenvalues --    0.14339   0.15177   0.15698   0.15839   0.16705

 Mulliken charges:
               1
     1  O   -1.371894
     2  S    2.782941
     3  N   -1.777644
     4  C    0.347346
     5  C    0.481288
     6  S    2.933731
     7  C    0.468235
     8  O   -1.305011
     9  O   -1.326148
    10  C    0.734365
    11  C    0.192882
    12  C    0.773216
    13  C    0.737780
    14  C    0.126879
    15  C    0.683798
    16  C    0.091082
    17  C    0.817845
    18  C    0.310982
    19  C    0.553369
    20  C    0.299073
    21  C    0.665514
    22  C    0.221225
    23  C    0.654878
    24  O   -1.287703
    25  H   -0.350778
    26  H   -0.358597
    27  H   -0.297204
    28  H   -0.255727
    29  H   -0.117747
    30  H   -0.236401
    31  H   -0.296810
    32  H   -0.071837
    33  H   -0.734742
    34  H   -0.535567
    35  H   -0.491283
    36  H   -0.533378
    37  H   -0.730354
    38  H   -0.660106
    39  H   -0.490923
    40  H   -0.482868
    41  H   -0.553619
    42  H   -0.610091
 Sum of Mulliken charges =  -1.00000

 Dipole moment (field-independent basis, Debye):
    X=              6.5433    Y=              1.3262    Z=             -5.8237  Tot=              8.8594
 Quadrupole moment (field-independent basis, Debye-Ang):
   XX=           -205.1821   YY=           -178.5139   ZZ=           -182.7805
   XY=            -15.6196   XZ=             -2.0707   YZ=            -23.8600

 Normal termination of Gaussian 16 at Thu Sep 24 06:23:03 2020.
