 Gaussian 16, Revision B.01,

 ----------------------------------------------------------------------
 #p b3lyp/6-31G(d) opt freq NoSymm scf=(MaxCycle=2000,NoVarAcc,NoIncFoc
 k) scrf=(iefpcm,read,solvent=water)
 ----------------------------------------------------------------------

 -------------------
 SM39_m0.n.7.pdb.xyz
 -------------------
 Symbolic Z-matrix:
 Charge =  0 Multiplicity = 1

 SCF Done:  E(RB3LYP) =  -1811.15048725     A.U. after   13 cycles
 SCF Done:  E(RB3LYP) =  -1811.15055012     A.U. after   11 cycles
 SCF Done:  E(RB3LYP) =  -1811.15070385     A.U. after   10 cycles
 SCF Done:  E(RB3LYP) =  -1811.15067994     A.U. after    8 cycles
 SCF Done:  E(RB3LYP) =  -1811.15068006     A.U. after    8 cycles
 SCF Done:  E(RB3LYP) =  -1811.15070262     A.U. after    8 cycles
 SCF Done:  E(RB3LYP) =  -1811.15070223     A.U. after    6 cycles
 SCF Done:  E(RB3LYP) =  -1811.15070212     A.U. after    4 cycles
 SCF Done:  E(RB3LYP) =  -1811.15070209     A.U. after    4 cycles
 SCF Done:  E(RB3LYP) =  -1811.15070209     A.U. after    2 cycles
 SCF Done:  E(RB3LYP) =  -1811.15070130     A.U. after    1 cycles
 SCF Done:  E(RB3LYP) =  -1811.15068506     A.U. after    8 cycles
 SCF Done:  E(RB3LYP) =  -1811.15070145     A.U. after    8 cycles
 SCF Done:  E(RB3LYP) =  -1811.15070139     A.U. after    4 cycles
 SCF Done:  E(RB3LYP) =  -1811.15059517     A.U. after   10 cycles
 SCF Done:  E(RB3LYP) =  -1811.15068506     A.U. after   10 cycles
 Optimization completed.
    -- Stationary point found.
 Normal termination of Gaussian 16 at Tue Sep 22 04:18:38 2020.

 --------------------------------------------------------------------
 #P Geom=AllCheck Guess=TCheck SCRF=Check GenChk RB3LYP/6-31G(d) Freq
 --------------------------------------------------------------------

 Structure from the checkpoint file:  "SM39_m0.n.7.pdb.xyz.mst.n.w.chk"
 -------------------
 SM39_m0.n.7.pdb.xyz
 -------------------
 Charge =  0 Multiplicity = 1

 SCF Done:  E(RB3LYP) =  -1811.15068506     A.U. after    1 cycles

  Exact polarizability: 364.567  18.866 211.974  -3.411   2.625 302.438
 Approx polarizability: 398.274  11.246 240.987  -7.769   6.570 367.381

 ******    1 imaginary frequencies (negative Signs) ******

                      1                      2                      3
                      A                      A                      A
 Frequencies --     -2.8519                15.2171                21.9489
 Red. masses --      3.7555                 4.6524                 5.5876
 Frc consts  --      0.0000                 0.0006                 0.0016
 IR Inten    --      0.1181                 1.1654                 0.3505

                      4                      5                      6
                      A                      A                      A
 Frequencies --     26.5737                42.5632                48.4315
 Red. masses --      4.7703                 4.9539                 7.8575
 Frc consts  --      0.0020                 0.0053                 0.0109
 IR Inten    --      1.0642                 1.0332                 3.8024

                      7                      8                      9
                      A                      A                      A
 Frequencies --     65.0243               102.5477               122.4114
 Red. masses --      6.5870                 4.2562                 6.0831
 Frc consts  --      0.0164                 0.0264                 0.0537
 IR Inten    --      4.7916                 5.8639                 3.0195

                     10                     11                     12
                      A                      A                      A
 Frequencies --    132.6494               159.9040               180.3098
 Red. masses --      5.2989                 6.5609                 5.7097
 Frc consts  --      0.0549                 0.0988                 0.1094
 IR Inten    --      2.1204                 0.5842                 2.7655

                     13                     14                     15
                      A                      A                      A
 Frequencies --    196.3527               222.6433               247.1487
 Red. masses --      4.6416                 5.1767                 8.6207
 Frc consts  --      0.1054                 0.1512                 0.3102
 IR Inten    --      7.2016                 2.8010                 0.2335

                     16                     17                     18
                      A                      A                      A
 Frequencies --    281.3936               300.8788               309.5801
 Red. masses --      2.9991                 5.3971                 4.9912
 Frc consts  --      0.1399                 0.2879                 0.2818
 IR Inten    --      9.0560                14.5049                 2.7680

                     19                     20                     21
                      A                      A                      A
 Frequencies --    320.2361               326.0142               353.6024
 Red. masses --      3.8388                 3.3335                 3.5165
 Frc consts  --      0.2319                 0.2087                 0.2591
 IR Inten    --      4.0450                 2.6718                 4.2808

                     22                     23                     24
                      A                      A                      A
 Frequencies --    370.7221               394.6419               411.5658
 Red. masses --      4.0686                 4.8231                 2.9656
 Frc consts  --      0.3294                 0.4426                 0.2960
 IR Inten    --     12.8194                 9.4204                 2.9008

                     25                     26                     27
                      A                      A                      A
 Frequencies --    418.9244               429.1179               440.5659
 Red. masses --      2.9796                 4.2784                 3.1134
 Frc consts  --      0.3081                 0.4642                 0.3560
 IR Inten    --      0.2223                45.6327                57.7839

                     28                     29                     30
                      A                      A                      A
 Frequencies --    488.1551               498.3116               516.5875
 Red. masses --      4.8220                 2.5906                 2.4402
 Frc consts  --      0.6770                 0.3790                 0.3837
 IR Inten    --     25.2195               107.7666                35.6437

                     31                     32                     33
                      A                      A                      A
 Frequencies --    517.6690               550.4310               578.0098
 Red. masses --      3.5181                 6.6675                 6.9707
 Frc consts  --      0.5555                 1.1902                 1.3721
 IR Inten    --     10.6577                86.1140               175.0456

                     34                     35                     36
                      A                      A                      A
 Frequencies --    607.9618               610.6964               625.6819
 Red. masses --      3.8556                 6.0576                 6.4367
 Frc consts  --      0.8397                 1.3311                 1.4846
 IR Inten    --     65.9775                93.6133                 0.7766

                     37                     38                     39
                      A                      A                      A
 Frequencies --    634.5934               697.2247               709.4288
 Red. masses --      6.3217                 2.4693                 3.2074
 Frc consts  --      1.4999                 0.7072                 0.9511
 IR Inten    --      0.2494                42.3209                 6.8087

                     40                     41                     42
                      A                      A                      A
 Frequencies --    715.3361               723.3448               760.5472
 Red. masses --      5.6025                 1.7515                 5.8827
 Frc consts  --      1.6891                 0.5400                 2.0048
 IR Inten    --     17.5410                62.6850                80.4340

                     43                     44                     45
                      A                      A                      A
 Frequencies --    767.0207               771.5704               776.5472
 Red. masses --      1.4990                 1.3261                 2.0663
 Frc consts  --      0.5196                 0.4651                 0.7341
 IR Inten    --     28.6994                 1.5932                13.8160

                     46                     47                     48
                      A                      A                      A
 Frequencies --    819.2290               826.7231               839.6223
 Red. masses --      3.6042                 1.5676                 3.3734
 Frc consts  --      1.4252                 0.6312                 1.4012
 IR Inten    --     99.0445                 5.8040                 8.7041

                     49                     50                     51
                      A                      A                      A
 Frequencies --    858.6889               866.8317               872.5009
 Red. masses --      1.2512                 1.2490                 3.6704
 Frc consts  --      0.5436                 0.5529                 1.6463
 IR Inten    --      0.7575                 0.0101               146.4674

                     52                     53                     54
                      A                      A                      A
 Frequencies --    927.0032               934.2974               947.4201
 Red. masses --      2.1763                 1.6583                 1.9339
 Frc consts  --      1.1019                 0.8529                 1.0228
 IR Inten    --     67.4265                53.7186                12.1171

                     55                     56                     57
                      A                      A                      A
 Frequencies --    948.9241               978.7389               989.1725
 Red. masses --      1.3637                 1.3544                 1.3567
 Frc consts  --      0.7235                 0.7644                 0.7821
 IR Inten    --      2.4071                 0.0217                 0.3577

                     58                     59                     60
                      A                      A                      A
 Frequencies --   1004.4318              1011.6885              1014.0284
 Red. masses --      1.2571                 2.1424                 4.7922
 Frc consts  --      0.7473                 1.2920                 2.9033
 IR Inten    --      0.0441                51.5771                21.9354

                     61                     62                     63
                      A                      A                      A
 Frequencies --   1016.7504              1020.7527              1047.6591
 Red. masses --      5.9937                 1.2853                 3.0773
 Frc consts  --      3.6507                 0.7890                 1.9900
 IR Inten    --      1.8644                 0.0307                14.6565

                     64                     65                     66
                      A                      A                      A
 Frequencies --   1053.1271              1055.4620              1060.1351
 Red. masses --      2.2441                 1.7733                 1.6602
 Frc consts  --      1.4664                 1.1639                 1.0994
 IR Inten    --      0.2276                19.6455                27.2404

                     67                     68                     69
                      A                      A                      A
 Frequencies --   1070.3043              1078.9200              1091.5114
 Red. masses --      1.9369                 3.4320                 3.4752
 Frc consts  --      1.3073                 2.3539                 2.4394
 IR Inten    --     12.9571               151.2864               183.1019

                     70                     71                     72
                      A                      A                      A
 Frequencies --   1110.3826              1122.2067              1127.1619
 Red. masses --      1.5787                 1.6863                 4.0976
 Frc consts  --      1.1468                 1.2512                 3.0673
 IR Inten    --     14.3312                10.2288               295.7071

                     73                     74                     75
                      A                      A                      A
 Frequencies --   1147.6453              1181.1787              1193.0719
 Red. masses --      4.8648                 1.0889                 1.0983
 Frc consts  --      3.7751                 0.8951                 0.9211
 IR Inten    --     39.4454                 0.0972                 0.5364

                     76                     77                     78
                      A                      A                      A
 Frequencies --   1199.2462              1200.9055              1204.2748
 Red. masses --      1.2851                 1.1405                 1.1611
 Frc consts  --      1.0890                 0.9691                 0.9921
 IR Inten    --      9.1887                 0.6037                 1.4408

                     79                     80                     81
                      A                      A                      A
 Frequencies --   1224.0208              1238.8701              1239.9387
 Red. masses --      1.9494                 2.0432                 1.7318
 Frc consts  --      1.7208                 1.8476                 1.5687
 IR Inten    --    104.2705                22.0410                 7.2261

                     82                     83                     84
                      A                      A                      A
 Frequencies --   1257.7192              1275.6076              1287.9188
 Red. masses --      3.0536                11.3428                 2.8228
 Frc consts  --      2.8460                10.8744                 2.7587
 IR Inten    --     56.7542               652.7844                50.0766

                     85                     86                     87
                      A                      A                      A
 Frequencies --   1330.6312              1342.0520              1344.5290
 Red. masses --      1.4022                 1.4494                 1.5314
 Frc consts  --      1.4628                 1.5381                 1.6311
 IR Inten    --     24.4983                 4.5941                 1.2962

                     88                     89                     90
                      A                      A                      A
 Frequencies --   1360.0664              1363.6632              1372.4975
 Red. masses --      2.3515                 4.3998                 1.4160
 Frc consts  --      2.5628                 4.8205                 1.5716
 IR Inten    --      0.0068                 5.2106                 0.6502

                     91                     92                     93
                      A                      A                      A
 Frequencies --   1411.7578              1469.4883              1482.4022
 Red. masses --      1.4657                 1.1558                 1.1714
 Frc consts  --      1.7211                 1.4705                 1.5167
 IR Inten    --      8.2984                50.3955                28.5848

                     94                     95                     96
                      A                      A                      A
 Frequencies --   1490.7491              1492.4996              1497.3781
 Red. masses --      1.2729                 1.7335                 1.2439
 Frc consts  --      1.6667                 2.2751                 1.6432
 IR Inten    --     22.9076                 9.0357                 2.6259

                     97                     98                     99
                      A                      A                      A
 Frequencies --   1499.1807              1517.6170              1524.1935
 Red. masses --      1.6411                 1.1053                 2.0402
 Frc consts  --      2.1731                 1.4999                 2.7926
 IR Inten    --      0.9305                 5.0028                 5.2207

                    100                    101                    102
                      A                      A                      A
 Frequencies --   1542.9691              1641.8741              1642.3005
 Red. masses --      2.2573                 5.4749                 5.5737
 Frc consts  --      3.1664                 8.6958                 8.8572
 IR Inten    --     18.9927                 3.1912                 1.6662

                    103                    104                    105
                      A                      A                      A
 Frequencies --   1644.2219              1662.0579              3071.2480
 Red. masses --      5.8364                 5.7349                 1.0587
 Frc consts  --      9.2964                 9.3341                 5.8836
 IR Inten    --      0.0241                 8.7195                26.8569

                    106                    107                    108
                      A                      A                      A
 Frequencies --   3082.7071              3110.0027              3133.2113
 Red. masses --      1.0598                 1.1026                 1.1049
 Frc consts  --      5.9340                 6.2834                 6.3910
 IR Inten    --     54.6130                12.0813                44.9211

                    109                    110                    111
                      A                      A                      A
 Frequencies --   3146.0557              3149.3275              3190.9958
 Red. masses --      1.0582                 1.0602                 1.0862
 Frc consts  --      6.1712                 6.1952                 6.5164
 IR Inten    --      1.9040                 2.9818                13.4848

                    112                    113                    114
                      A                      A                      A
 Frequencies --   3192.7180              3202.2506              3210.9292
 Red. masses --      1.0875                 1.0900                 1.0940
 Frc consts  --      6.5313                 6.5856                 6.6455
 IR Inten    --      9.8903                20.5660                74.4671

                    115                    116                    117
                      A                      A                      A
 Frequencies --   3215.8601              3216.0536              3221.4240
 Red. masses --      1.0865                 1.1111                 1.0979
 Frc consts  --      6.6203                 6.7707                 6.7130
 IR Inten    --      0.5943                 0.3063                29.7603

                    118                    119                    120
                      A                      A                      A
 Frequencies --   3225.2091              3228.2463              3234.2019
 Red. masses --      1.0897                 1.1081                 1.0936
 Frc consts  --      6.6786                 6.8042                 6.7395
 IR Inten    --     15.6560                 1.8234                22.9976

                    121                    122                    123
                      A                      A                      A
 Frequencies --   3241.7744              3251.3914              3480.6390
 Red. masses --      1.0953                 1.0934                 1.0761
 Frc consts  --      6.7818                 6.8101                 7.6809
 IR Inten    --     10.4360                 6.0887               151.7785

 - Thermochemistry -
 -------------------
 Temperature   298.150 Kelvin.  Pressure   1.00000 Atm.
 Atom     1 has atomic number  8 and mass  15.99491

 Molecular mass:   365.07555 amu.
 Principal axes and moments of inertia in atomic units:
                           1         2         3
     Eigenvalues --  8292.49941********************
           X            1.00000  -0.00240  -0.00146
           Y            0.00243   0.99987   0.01566
           Z            0.00142  -0.01566   0.99988
 This molecule is an asymmetric top.
 Rotational symmetry number  1.
 Warning -- assumption of classical behavior for rotation
           may cause significant error
 Rotational temperatures (Kelvin)      0.01044     0.00828     0.00525
 Rotational constants (GHZ):           0.21764     0.17255     0.10930
    1 imaginary frequencies ignored.
 Zero-point vibrational energy     892836.1 (Joules/Mol)
                                  213.39294 (Kcal/Mol)
 Warning -- explicit consideration of  34 degrees of freedom as
           vibrations may cause significant error
 Vibrational temperatures:     21.89    31.58    38.23    61.24    69.68
          (Kelvin)             93.56   147.54   176.12   190.85   230.07
                              259.43   282.51   320.33   355.59   404.86
                              432.90   445.42   460.75   469.06   508.75
                              533.39   567.80   592.15   602.74   617.40
                              633.88   702.35   716.96   743.25   744.81
                              791.95   831.63   874.72   878.66   900.22
                              913.04  1003.15  1020.71  1029.21  1040.73
                             1094.26  1103.57  1110.12  1117.28  1178.69
                             1189.47  1208.03  1235.46  1247.18  1255.33
                             1333.75  1344.25  1363.13  1365.29  1408.19
                             1423.20  1445.15  1455.59  1458.96  1462.88
                             1468.64  1507.35  1515.22  1518.57  1525.30
                             1539.93  1552.33  1570.44  1597.59  1614.61
                             1621.73  1651.21  1699.45  1716.56  1725.45
                             1727.84  1732.68  1761.09  1782.46  1784.00
                             1809.58  1835.31  1853.03  1914.48  1930.91
                             1934.48  1956.83  1962.01  1974.72  2031.20
                             2114.27  2132.85  2144.86  2147.37  2154.39
                             2156.99  2183.51  2192.97  2219.99  2362.29
                             2362.90  2365.67  2391.33  4418.84  4435.33
                             4474.60  4507.99  4526.47  4531.18  4591.13
                             4593.61  4607.32  4619.81  4626.91  4627.18
                             4634.91  4640.36  4644.73  4653.30  4664.19
                             4678.03  5007.86

 Zero-point correction=                           0.340063 (Hartree/Particle)
 Thermal correction to Energy=                    0.361220
 Thermal correction to Enthalpy=                  0.362165
 Thermal correction to Gibbs Free Energy=         0.287151
 Sum of electronic and zero-point Energies=          -1810.810622
 Sum of electronic and thermal Energies=             -1810.789465
 Sum of electronic and thermal Enthalpies=           -1810.788520
 Sum of electronic and thermal Free Energies=        -1810.863534

                     E (Thermal)             CV                S
                      KCal/Mol        Cal/Mol-Kelvin    Cal/Mol-Kelvin
 Total                  226.669             83.380            157.880
 Electronic               0.000              0.000              0.000
 Translational            0.889              2.981             43.578
 Rotational               0.889              2.981             35.614
 Vibrational            224.892             77.418             78.688
 Vibration     1          0.593              1.986              7.177
 Vibration     2          0.593              1.985              6.450
 Vibration     3          0.593              1.984              6.070
 Vibration     4          0.595              1.980              5.136
 Vibration     5          0.595              1.978              4.880
 Vibration     6          0.597              1.971              4.299
 Vibration     7          0.605              1.947              3.405
 Vibration     8          0.610              1.930              3.062
 Vibration     9          0.613              1.921              2.907
 Vibration    10          0.622              1.891              2.551
 Vibration    11          0.629              1.866              2.325
 Vibration    12          0.636              1.845              2.167
 Vibration    13          0.648              1.807              1.937
 Vibration    14          0.661              1.768              1.751
 Vibration    15          0.681              1.708              1.525
 Vibration    16          0.693              1.672              1.412
 Vibration    17          0.699              1.655              1.365
 Vibration    18          0.706              1.635              1.309
 Vibration    19          0.710              1.623              1.280
 Vibration    20          0.730              1.568              1.150
 Vibration    21          0.743              1.532              1.077
 Vibration    22          0.762              1.482              0.983
 Vibration    23          0.776              1.445              0.921
 Vibration    24          0.782              1.429              0.896
 Vibration    25          0.790              1.407              0.862
 Vibration    26          0.800              1.382              0.825
 Vibration    27          0.844              1.276              0.688
 Vibration    28          0.854              1.254              0.662
 Vibration    29          0.872              1.213              0.618
 Vibration    30          0.873              1.211              0.615
 Vibration    31          0.906              1.139              0.543
 Vibration    32          0.935              1.079              0.489
 Vibration    33          0.967              1.015              0.436
 Vibration    34          0.970              1.009              0.432

 Optimization completed on the basis of negligible forces.
    -- Stationary point found.
 Normal termination of Gaussian 16 at Tue Sep 22 04:45:21 2020.

 ----------------------------------------------------------------------
 #p b3lyp/6-31G(d) scrf=(iefpcm,read,solvent=water) geom=allcheck guess
 =read
 ----------------------------------------------------------------------

 Structure from the checkpoint file:  "SM39_m0.n.7.pdb.xyz.mst.n.w.chk"
 -------------------
 SM39_m0.n.7.pdb.xyz
 -------------------
 Charge =  0 Multiplicity = 1

 SCF Done:  E(RB3LYP) =  -1811.15068560     A.U. after    5 cycles
 Normal termination of Gaussian 16 at Tue Sep 22 04:46:17 2020.

 -----------------------------
 #p B3LYP/6-31G* geom=allcheck
 -----------------------------

 Structure from the checkpoint file:  "SM39_m0.n.7.pdb.xyz.mst.n.w.chk"
 -------------------
 SM39_m0.n.7.pdb.xyz
 -------------------
 Charge =  0 Multiplicity = 1

 SCF Done:  E(RB3LYP) =  -1811.12080677     A.U. after   15 cycles
 Normal termination of Gaussian 16 at Tue Sep 22 04:47:43 2020.
 Gaussian 16:  ES64L-G16RevB.01 20-Dec-2017

 ----------------------------------------------------------------------
 #p mp2/aug-cc-pVDZ scf=(MaxCycle=2000,NoVarAcc,NoIncFock) maxdisk=120G
 B geom=allcheck
 ----------------------------------------------------------------------

 Structure from the checkpoint file:  "SM39_m0.n.7.pdb.xyz.mst.n.w.chk"
 -------------------
 SM39_m0.n.7.pdb.xyz
 -------------------
 Charge =  0 Multiplicity = 1

                         Standard orientation:
 ---------------------------------------------------------------------
 Center     Atomic      Atomic             Coordinates (Angstroms)
 Number     Number       Type             X           Y           Z
 ---------------------------------------------------------------------
      1          8           0       -0.988679    1.623980   -1.929261
      2         16           0       -1.111892    2.152608   -0.559115
      3          7           0       -1.586886    0.949834    0.523747
      4          6           0       -1.386509   -0.488600    0.227139
      5          6           0       -2.256317   -0.999887   -0.980294
      6         16           0       -3.500388   -1.649921    0.181871
      7          6           0       -2.139868   -1.283318    1.343335
      8          8           0       -4.627556   -0.709758    0.357549
      9          8           0       -3.803308   -3.085037    0.027801
     10          6           0        0.121344   -0.790307    0.139257
     11          6           0        0.513651   -2.259974   -0.098279
     12          6           0        2.017206   -2.434348   -0.105413
     13          6           0        2.747392   -2.307960   -1.294392
     14          6           0        4.137070   -2.441356   -1.298819
     15          6           0        4.819211   -2.705342   -0.109135
     16          6           0        4.102153   -2.835339    1.082435
     17          6           0        2.712607   -2.700792    1.081460
     18          6           0        0.519269    2.632908   -0.012984
     19          6           0        0.732946    2.951071    1.330703
     20          6           0        1.993770    3.397415    1.719776
     21          6           0        3.015391    3.528733    0.774113
     22          6           0        2.783061    3.213641   -0.565938
     23          6           0        1.525460    2.763136   -0.969213
     24          8           0       -2.043321    3.264534   -0.304484
     25          1           0       -2.537426    1.178044    0.823960
     26          1           0       -1.808347   -1.824134   -1.536458
     27          1           0       -2.626853   -0.236734   -1.660084
     28          1           0       -1.637723   -2.206618    1.629032
     29          1           0       -2.439229   -0.720442    2.226721
     30          1           0        0.576504   -0.441775    1.071485
     31          1           0        0.545021   -0.185429   -0.667177
     32          1           0        0.107916   -2.606129   -1.053711
     33          1           0        0.083376   -2.894881    0.682553
     34          1           0        2.221185   -2.108671   -2.223502
     35          1           0        4.685251   -2.344170   -2.230773
     36          1           0        5.899027   -2.812974   -0.111140
     37          1           0        4.622924   -3.046105    2.011098
     38          1           0        2.159232   -2.808338    2.010166
     39          1           0       -0.063842    2.839408    2.056118
     40          1           0        2.179072    3.640997    2.759885
     41          1           0        3.994682    3.875775    1.085127
     42          1           0        3.576829    3.315410   -1.297456
     43          1           0        1.322973    2.507090   -2.001536
 ---------------------------------------------------------------------

 SCF Done:  E(RHF) =  -1803.71573019     A.U. after   21 cycles
 E2 =    -0.3646054956D+01 EUMP2 =    -0.18073617851497D+04

 The electronic state is 1-A.
 Alpha  occ. eigenvalues --  -92.23973 -92.20381 -20.57457 -20.56764 -20.56492
 Alpha  occ. eigenvalues --  -20.56400 -15.63218 -11.34761 -11.30408 -11.29978
 Alpha  occ. eigenvalues --  -11.29409 -11.28552 -11.28305 -11.27965 -11.27440
 Alpha  occ. eigenvalues --  -11.27319 -11.26769 -11.26546 -11.26473 -11.25699
 Alpha  occ. eigenvalues --  -11.25664 -11.25450 -11.25384 -11.25317  -9.20783
 Alpha  occ. eigenvalues --   -9.17658  -6.89318  -6.89270  -6.89165  -6.86150
 Alpha  occ. eigenvalues --   -6.86050  -6.85981  -1.46979  -1.44613  -1.34846
 Alpha  occ. eigenvalues --   -1.33388  -1.27275  -1.19460  -1.17367  -1.14923
 Alpha  occ. eigenvalues --   -1.09053  -1.06953  -1.05486  -1.02993  -1.02082
 Alpha  occ. eigenvalues --   -0.99003  -0.94621  -0.91993  -0.86736  -0.85402
 Alpha  occ. eigenvalues --   -0.84389  -0.82636  -0.81545  -0.78786  -0.75191
 Alpha  occ. eigenvalues --   -0.72537  -0.71910  -0.70786  -0.69604  -0.68926
 Alpha  occ. eigenvalues --   -0.67968  -0.67017  -0.65969  -0.65249  -0.65031
 Alpha  occ. eigenvalues --   -0.64715  -0.63241  -0.62696  -0.62441  -0.61943
 Alpha  occ. eigenvalues --   -0.60857  -0.59948  -0.58768  -0.56725  -0.55972
 Alpha  occ. eigenvalues --   -0.55746  -0.55036  -0.54003  -0.53240  -0.52763
 Alpha  occ. eigenvalues --   -0.51643  -0.50807  -0.50278  -0.49963  -0.49933
 Alpha  occ. eigenvalues --   -0.49293  -0.48460  -0.47720  -0.46996  -0.46083
 Alpha  occ. eigenvalues --   -0.44939  -0.42865  -0.37572  -0.36945  -0.35027
 Alpha  occ. eigenvalues --   -0.34249
 Alpha virt. eigenvalues --    0.01929   0.02631   0.03092   0.03367   0.04142
 Alpha virt. eigenvalues --    0.04242   0.04745   0.05073   0.05688   0.06143
 Alpha virt. eigenvalues --    0.06242   0.06841   0.06961   0.07013   0.07824

 Mulliken charges:
               1
     1  O   -1.287369
     2  S    2.899754
     3  N   -1.098529
     4  C    0.113816
     5  C    0.157323
     6  S    2.942323
     7  C    0.574762
     8  O   -1.266153
     9  O   -1.237961
    10  C    0.327083
    11  C    1.052110
    12  C    0.908542
    13  C    0.784466
    14  C   -0.024524
    15  C    0.706356
    16  C   -0.075437
    17  C    0.721138
    18  C    0.611139
    19  C    0.471833
    20  C    0.279342
    21  C    0.788485
    22  C    0.351860
    23  C    0.436473
    24  O   -1.204540
    25  H   -0.054788
    26  H   -0.280646
    27  H   -0.287877
    28  H   -0.186238
    29  H   -0.322281
    30  H   -0.212630
    31  H   -0.250157
    32  H   -0.270494
    33  H   -0.361864
    34  H   -0.721971
    35  H   -0.496073
    36  H   -0.444884
    37  H   -0.489257
    38  H   -0.711604
    39  H   -0.728759
    40  H   -0.498017
    41  H   -0.460287
    42  H   -0.498012
    43  H   -0.656450
 Sum of Mulliken charges =  -0.00000

 Dipole moment (field-independent basis, Debye):
    X=              9.4945    Y=              0.1983    Z=              2.9399  Tot=              9.9412
 Quadrupole moment (field-independent basis, Debye-Ang):
   XX=           -180.9184   YY=           -176.6425   ZZ=           -145.4472
   XY=              3.1080   XZ=             -3.2541   YZ=              5.3167

 Normal termination of Gaussian 16 at Tue Sep 22 08:27:02 2020.
