 Gaussian 16, Revision B.01,

 ----------------------------------------------------------------------
 #p b3lyp/6-31G(d) opt freq NoSymm scf=(MaxCycle=2000,NoVarAcc,NoIncFoc
 k) scrf=(iefpcm,read,solvent=water)
 ----------------------------------------------------------------------

 -------------------
 SM39_m0.n.1.pdb.xyz
 -------------------
 Symbolic Z-matrix:
 Charge =  0 Multiplicity = 1

 SCF Done:  E(RB3LYP) =  -1811.14960773     A.U. after   13 cycles
 SCF Done:  E(RB3LYP) =  -1811.14967081     A.U. after   10 cycles
 SCF Done:  E(RB3LYP) =  -1811.14974696     A.U. after   10 cycles
 SCF Done:  E(RB3LYP) =  -1811.14969350     A.U. after    9 cycles
 SCF Done:  E(RB3LYP) =  -1811.14970642     A.U. after    8 cycles
 SCF Done:  E(RB3LYP) =  -1811.14974434     A.U. after    9 cycles
 SCF Done:  E(RB3LYP) =  -1811.14974693     A.U. after    8 cycles
 SCF Done:  E(RB3LYP) =  -1811.14970165     A.U. after    9 cycles
 SCF Done:  E(RB3LYP) =  -1811.14970584     A.U. after    8 cycles
 SCF Done:  E(RB3LYP) =  -1811.14974426     A.U. after    9 cycles
 SCF Done:  E(RB3LYP) =  -1811.14973583     A.U. after    2 cycles
 SCF Done:  E(RB3LYP) =  -1811.14973583     A.U. after    3 cycles
 SCF Done:  E(RB3LYP) =  -1811.14969561     A.U. after    9 cycles
 SCF Done:  E(RB3LYP) =  -1811.14971083     A.U. after    8 cycles
 SCF Done:  E(RB3LYP) =  -1811.14970790     A.U. after    8 cycles
 SCF Done:  E(RB3LYP) =  -1811.14970602     A.U. after    7 cycles
 Optimization completed.
    -- Stationary point found.
 Normal termination of Gaussian 16 at Tue Sep 22 04:57:58 2020.

 --------------------------------------------------------------------
 #P Geom=AllCheck Guess=TCheck SCRF=Check GenChk RB3LYP/6-31G(d) Freq
 --------------------------------------------------------------------

 Structure from the checkpoint file:  "SM39_m0.n.1.pdb.xyz.mst.n.w.chk"
 -------------------
 SM39_m0.n.1.pdb.xyz
 -------------------
 Charge =  0 Multiplicity = 1

 SCF Done:  E(RB3LYP) =  -1811.14970602     A.U. after    1 cycles

  Exact polarizability: 299.172  14.431 272.044  -2.772  -1.987 308.944
 Approx polarizability: 326.014  18.199 304.806  -2.047  -5.182 379.877

                      1                      2                      3
                      A                      A                      A
 Frequencies --      9.4525                15.7382                26.6482
 Red. masses --      5.2522                 5.1415                 4.9430
 Frc consts  --      0.0003                 0.0008                 0.0021
 IR Inten    --      2.3925                 1.2701                 1.8650

                      4                      5                      6
                      A                      A                      A
 Frequencies --     32.1947                38.4864                51.2385
 Red. masses --      5.6594                 7.1889                 4.2165
 Frc consts  --      0.0035                 0.0063                 0.0065
 IR Inten    --      1.4227                 6.1940                 1.8061

                      7                      8                      9
                      A                      A                      A
 Frequencies --     62.4469                97.8306               110.0839
 Red. masses --      5.6047                 6.2588                 7.1777
 Frc consts  --      0.0129                 0.0353                 0.0512
 IR Inten    --      2.0554                 1.4888                 5.9659

                     10                     11                     12
                      A                      A                      A
 Frequencies --    145.7026               151.0305               197.8087
 Red. masses --      6.0832                 5.9488                 5.7215
 Frc consts  --      0.0761                 0.0799                 0.1319
 IR Inten    --      1.3950                 0.7870                 1.9794

                     13                     14                     15
                      A                      A                      A
 Frequencies --    207.9995               235.4704               242.0008
 Red. masses --      5.2730                 3.8645                 8.8063
 Frc consts  --      0.1344                 0.1262                 0.3039
 IR Inten    --      2.7679                 1.6414                14.0131

                     16                     17                     18
                      A                      A                      A
 Frequencies --    277.9099               290.7310               310.4470
 Red. masses --      3.5863                 5.8331                 8.6389
 Frc consts  --      0.1632                 0.2905                 0.4905
 IR Inten    --      0.9982                 3.2833                 5.6573

                     19                     20                     21
                      A                      A                      A
 Frequencies --    321.1401               343.0964               365.9753
 Red. masses --      2.8699                 2.3729                 2.4726
 Frc consts  --      0.1744                 0.1646                 0.1951
 IR Inten    --      3.5382                 4.4737                 7.4936

                     22                     23                     24
                      A                      A                      A
 Frequencies --    377.1821               405.9081               410.4424
 Red. masses --      5.0835                 4.7108                 2.8911
 Frc consts  --      0.4261                 0.4573                 0.2870
 IR Inten    --     12.4927                30.3250                 8.4690

                     25                     26                     27
                      A                      A                      A
 Frequencies --    412.1024               419.1376               449.1835
 Red. masses --      2.8278                 3.0677                 4.8304
 Frc consts  --      0.2829                 0.3175                 0.5742
 IR Inten    --     14.0134                 5.1522                55.0391

                     28                     29                     30
                      A                      A                      A
 Frequencies --    475.9917               483.3716               515.8931
 Red. masses --      5.0828                 2.8415                 4.2501
 Frc consts  --      0.6785                 0.3912                 0.6665
 IR Inten    --      9.3389                11.3247                 6.5498

                     31                     32                     33
                      A                      A                      A
 Frequencies --    520.8158               561.8644               565.5751
 Red. masses --      2.1347                 4.9544                 6.8942
 Frc consts  --      0.3412                 0.9215                 1.2993
 IR Inten    --     61.4532               124.9184               206.1645

                     34                     35                     36
                      A                      A                      A
 Frequencies --    584.0841               612.4048               625.6631
 Red. masses --      2.9484                 5.2182                 6.4168
 Frc consts  --      0.5926                 1.1531                 1.4800
 IR Inten    --     65.0470               126.2752                 0.6690

                     37                     38                     39
                      A                      A                      A
 Frequencies --    634.4679               695.9982               712.2075
 Red. masses --      6.3076                 2.4329                 2.4487
 Frc consts  --      1.4960                 0.6944                 0.7318
 IR Inten    --      0.0919                42.1773                22.9829

                     40                     41                     42
                      A                      A                      A
 Frequencies --    714.8878               719.9200               757.0698
 Red. masses --      5.4458                 2.1301                 2.4802
 Frc consts  --      1.6398                 0.6505                 0.8375
 IR Inten    --     19.7392                11.8017                46.3631

                     43                     44                     45
                      A                      A                      A
 Frequencies --    763.7715               765.0156               771.8060
 Red. masses --      4.7330                 1.5887                 2.0253
 Frc consts  --      1.6267                 0.5478                 0.7108
 IR Inten    --     72.1192                41.9001                41.7692

                     46                     47                     48
                      A                      A                      A
 Frequencies --    801.0524               817.9601               858.2690
 Red. masses --      3.3514                 1.9251                 1.6146
 Frc consts  --      1.2671                 0.7589                 0.7007
 IR Inten    --     18.5680                67.1952                53.0136

                     49                     50                     51
                      A                      A                      A
 Frequencies --    859.6652               866.2801               890.5385
 Red. masses --      1.8093                 1.2532                 2.5170
 Frc consts  --      0.7878                 0.5541                 1.1761
 IR Inten    --     70.0096                 0.6355                29.6326

                     52                     53                     54
                      A                      A                      A
 Frequencies --    917.1852               945.1377               945.8677
 Red. masses --      1.4983                 1.9600                 1.3273
 Frc consts  --      0.7426                 1.0315                 0.6997
 IR Inten    --     11.4127                29.4266                 1.3001

                     55                     56                     57
                      A                      A                      A
 Frequencies --    958.5421               977.8590               988.7368
 Red. masses --      2.4201                 1.3536                 1.3597
 Frc consts  --      1.3101                 0.7626                 0.7832
 IR Inten    --     73.7813                 0.4998                 0.4602

                     58                     59                     60
                      A                      A                      A
 Frequencies --   1001.3651              1003.6649              1014.3719
 Red. masses --      1.6844                 1.5584                 6.1140
 Frc consts  --      0.9951                 0.9249                 3.7066
 IR Inten    --     11.0307                16.3907                 7.4021

                     61                     62                     63
                      A                      A                      A
 Frequencies --   1015.8484              1017.8752              1041.2216
 Red. masses --      5.9843                 1.2876                 2.0420
 Frc consts  --      3.6385                 0.7860                 1.3044
 IR Inten    --      0.3703                 0.0209                32.7776

                     64                     65                     66
                      A                      A                      A
 Frequencies --   1048.3475              1049.2904              1057.2039
 Red. masses --      1.9557                 1.6374                 2.0882
 Frc consts  --      1.2664                 1.0622                 1.3751
 IR Inten    --      3.6218                60.9048                 4.3280

                     67                     68                     69
                      A                      A                      A
 Frequencies --   1071.1765              1078.4376              1084.6598
 Red. masses --      2.2638                 2.4118                 3.3102
 Frc consts  --      1.5304                 1.6527                 2.2945
 IR Inten    --    286.1868                68.2011                56.3481

                     70                     71                     72
                      A                      A                      A
 Frequencies --   1111.0754              1118.2966              1126.1664
 Red. masses --      1.5909                 1.8364                 4.3948
 Frc consts  --      1.1572                 1.3531                 3.2840
 IR Inten    --     13.2135                18.6309               181.9006

                     73                     74                     75
                      A                      A                      A
 Frequencies --   1129.2587              1179.6814              1192.3907
 Red. masses --      3.7570                 1.0874                 1.0923
 Frc consts  --      2.8228                 0.8916                 0.9151
 IR Inten    --     88.1251                 0.1965                 0.4232

                     76                     77                     78
                      A                      A                      A
 Frequencies --   1192.8319              1205.0305              1208.4518
 Red. masses --      1.3145                 1.1359                 1.1610
 Frc consts  --      1.1019                 0.9718                 0.9990
 IR Inten    --      8.4604                 0.4109                 1.1323

                     79                     80                     81
                      A                      A                      A
 Frequencies --   1221.6219              1231.2824              1238.1853
 Red. masses --      1.3704                 2.1674                 2.0923
 Frc consts  --      1.2050                 1.9360                 1.8899
 IR Inten    --     23.7649                44.9888                83.6705

                     82                     83                     84
                      A                      A                      A
 Frequencies --   1263.8604              1274.6565              1278.8469
 Red. masses --      1.9019                 8.9013                 6.2844
 Frc consts  --      1.7899                 8.5210                 6.0555
 IR Inten    --    118.8586               351.4587               234.1768

                     85                     86                     87
                      A                      A                      A
 Frequencies --   1312.6796              1344.5802              1351.8779
 Red. masses --      1.5226                 1.5007                 2.3673
 Frc consts  --      1.5458                 1.5985                 2.5490
 IR Inten    --     55.3192                 1.4623                 1.5973

                     88                     89                     90
                      A                      A                      A
 Frequencies --   1363.5366              1364.3377              1387.7087
 Red. masses --      2.0063                 4.1429                 1.3807
 Frc consts  --      2.1978                 4.5436                 1.5666
 IR Inten    --      0.6727                 4.3355                 4.1857

                     91                     92                     93
                      A                      A                      A
 Frequencies --   1399.3282              1431.6161              1452.6129
 Red. masses --      1.4093                 1.2948                 1.0974
 Frc consts  --      1.6259                 1.5636                 1.3643
 IR Inten    --      7.8319                56.0397                27.6932

                     94                     95                     96
                      A                      A                      A
 Frequencies --   1464.7316              1492.2107              1497.0120
 Red. masses --      1.1062                 2.1567                 1.6707
 Frc consts  --      1.3983                 2.8295                 2.2060
 IR Inten    --      2.2225                25.5381                 8.6725

                     97                     98                     99
                      A                      A                      A
 Frequencies --   1498.2617              1511.9711              1524.6584
 Red. masses --      1.2674                 1.1001                 2.0507
 Frc consts  --      1.6763                 1.4818                 2.8086
 IR Inten    --      1.4919                14.3966                 4.1772

                    100                    101                    102
                      A                      A                      A
 Frequencies --   1542.9504              1640.9049              1643.2527
 Red. masses --      2.2487                 5.5469                 5.6669
 Frc consts  --      3.1541                 8.7997                 9.0158
 IR Inten    --     17.5564                 1.8617                 1.4945

                    103                    104                    105
                      A                      A                      A
 Frequencies --   1644.5145              1662.3404              3060.5069
 Red. masses --      5.6323                 5.6878                 1.0623
 Frc consts  --      8.9746                 9.2605                 5.8626
 IR Inten    --      1.6268                 9.6002                31.1697

                    106                    107                    108
                      A                      A                      A
 Frequencies --   3072.9628              3099.0876              3129.1184
 Red. masses --      1.0641                 1.1018                 1.0995
 Frc consts  --      5.9205                 6.2347                 6.3427
 IR Inten    --     45.8028                37.3801                19.3243

                    109                    110                    111
                      A                      A                      A
 Frequencies --   3139.5894              3141.9841              3189.8668
 Red. masses --      1.0573                 1.0589                 1.0865
 Frc consts  --      6.1403                 6.1591                 6.5136
 IR Inten    --      0.6476                 3.2934                14.0804

                    112                    113                    114
                      A                      A                      A
 Frequencies --   3192.6549              3202.3784              3210.7482
 Red. masses --      1.0873                 1.0899                 1.0939
 Frc consts  --      6.5296                 6.5853                 6.6442
 IR Inten    --     10.4729                17.3471                70.6650

                    115                    116                    117
                      A                      A                      A
 Frequencies --   3213.9196              3217.1698              3220.4736
 Red. masses --      1.1117                 1.0867                 1.1108
 Frc consts  --      6.7655                 6.6267                 6.7875
 IR Inten    --      1.0057                 1.4166                 1.3049

                    118                    119                    120
                      A                      A                      A
 Frequencies --   3222.0045              3227.4449              3233.6851
 Red. masses --      1.0978                 1.0890                 1.0932
 Frc consts  --      6.7149                 6.6835                 6.7351
 IR Inten    --     30.5867                12.6312                23.3420

                    121                    122                    123
                      A                      A                      A
 Frequencies --   3242.7794              3252.3094              3505.4351
 Red. masses --      1.0961                 1.0933                 1.0751
 Frc consts  --      6.7909                 6.8138                 7.7835
 IR Inten    --     15.6430                 6.2776               232.1363

 - Thermochemistry -
 -------------------
 Temperature   298.150 Kelvin.  Pressure   1.00000 Atm.
 Atom     1 has atomic number  8 and mass  15.99491

 Molecular mass:   365.07555 amu.
 Principal axes and moments of inertia in atomic units:
                           1         2         3
     Eigenvalues --  7083.846059997.55650**********
           X            0.99824  -0.05892  -0.00616
           Y            0.05893   0.99826   0.00110
           Z            0.00609  -0.00146   0.99998
 This molecule is an asymmetric top.
 Rotational symmetry number  1.
 Warning -- assumption of classical behavior for rotation
           may cause significant error
 Rotational temperatures (Kelvin)      0.01223     0.00866     0.00587
 Rotational constants (GHZ):           0.25477     0.18052     0.12228
 Zero-point vibrational energy     891670.1 (Joules/Mol)
                                  213.11426 (Kcal/Mol)
 Warning -- explicit consideration of  35 degrees of freedom as
           vibrations may cause significant error
 Vibrational temperatures:     13.60    22.64    38.34    46.32    55.37
          (Kelvin)             73.72    89.85   140.76   158.39   209.63
                              217.30   284.60   299.26   338.79   348.19
                              399.85   418.30   446.66   462.05   493.64
                              526.56   542.68   584.01   590.54   592.92
                              603.05   646.27   684.85   695.46   742.26
                              749.34   808.40   813.74   840.37   881.11
                              900.19   912.86  1001.39  1024.71  1028.56
                             1035.80  1089.25  1098.90  1100.69  1110.46
                             1152.54  1176.86  1234.86  1236.87  1246.38
                             1281.29  1319.62  1359.84  1360.89  1379.13
                             1406.92  1422.57  1440.74  1444.05  1459.45
                             1461.58  1464.50  1498.09  1508.34  1509.69
                             1521.08  1541.18  1551.63  1560.58  1598.59
                             1608.98  1620.30  1624.75  1697.30  1715.58
                             1716.22  1733.77  1738.69  1757.64  1771.54
                             1781.47  1818.41  1833.95  1839.98  1888.65
                             1934.55  1945.05  1961.83  1962.98  1996.60
                             2013.32  2059.78  2089.99  2107.42  2146.96
                             2153.87  2155.66  2175.39  2193.64  2219.96
                             2360.90  2364.27  2366.09  2391.74  4403.39
                             4421.31  4458.90  4502.10  4517.17  4520.61
                             4589.51  4593.52  4607.51  4619.55  4624.11
                             4628.79  4633.54  4635.75  4643.57  4652.55
                             4665.64  4679.35  5043.54

 Zero-point correction=                           0.339619 (Hartree/Particle)
 Thermal correction to Energy=                    0.361670
 Thermal correction to Enthalpy=                  0.362614
 Thermal correction to Gibbs Free Energy=         0.284238
 Sum of electronic and zero-point Energies=          -1810.810087
 Sum of electronic and thermal Energies=             -1810.788036
 Sum of electronic and thermal Enthalpies=           -1810.787092
 Sum of electronic and thermal Free Energies=        -1810.865468

                     E (Thermal)             CV                S
                      KCal/Mol        Cal/Mol-Kelvin    Cal/Mol-Kelvin
 Total                  226.951             85.487            164.956
 Electronic               0.000              0.000              0.000
 Translational            0.889              2.981             43.578
 Rotational               0.889              2.981             35.301
 Vibrational            225.174             79.526             86.077
 Vibration     1          0.593              1.987              8.123
 Vibration     2          0.593              1.986              7.110
 Vibration     3          0.593              1.984              6.064
 Vibration     4          0.594              1.983              5.689
 Vibration     5          0.594              1.982              5.336
 Vibration     6          0.596              1.977              4.769
 Vibration     7          0.597              1.972              4.378
 Vibration     8          0.603              1.951              3.497
 Vibration     9          0.606              1.941              3.267
 Vibration    10          0.617              1.907              2.728
 Vibration    11          0.618              1.902              2.659
 Vibration    12          0.637              1.843              2.153
 Vibration    13          0.641              1.828              2.061
 Vibration    14          0.655              1.787              1.837
 Vibration    15          0.658              1.776              1.788
 Vibration    16          0.679              1.714              1.547
 Vibration    17          0.687              1.691              1.470
 Vibration    18          0.699              1.654              1.360
 Vibration    19          0.707              1.633              1.304
 Vibration    20          0.722              1.589              1.198
 Vibration    21          0.739              1.542              1.097
 Vibration    22          0.748              1.519              1.050
 Vibration    23          0.771              1.457              0.941
 Vibration    24          0.775              1.448              0.925
 Vibration    25          0.776              1.444              0.919
 Vibration    26          0.782              1.429              0.895
 Vibration    27          0.808              1.363              0.798
 Vibration    28          0.833              1.303              0.721
 Vibration    29          0.840              1.287              0.701
 Vibration    30          0.871              1.215              0.620
 Vibration    31          0.876              1.204              0.608
 Vibration    32          0.918              1.114              0.520
 Vibration    33          0.921              1.106              0.513
 Vibration    34          0.941              1.066              0.478
 Vibration    35          0.972              1.006              0.429

 Optimization completed.
    -- Stationary point found.
 Normal termination of Gaussian 16 at Tue Sep 22 05:25:57 2020.

 ----------------------------------------------------------------------
 #p b3lyp/6-31G(d) scrf=(iefpcm,read,solvent=water) geom=allcheck guess
 =read
 ----------------------------------------------------------------------

 Structure from the checkpoint file:  "SM39_m0.n.1.pdb.xyz.mst.n.w.chk"
 -------------------
 SM39_m0.n.1.pdb.xyz
 -------------------
 Charge =  0 Multiplicity = 1

 SCF Done:  E(RB3LYP) =  -1811.14969521     A.U. after    6 cycles
 Normal termination of Gaussian 16 at Tue Sep 22 05:27:15 2020.

 -----------------------------
 #p B3LYP/6-31G* geom=allcheck
 -----------------------------

 Structure from the checkpoint file:  "SM39_m0.n.1.pdb.xyz.mst.n.w.chk"
 -------------------
 SM39_m0.n.1.pdb.xyz
 -------------------
 Charge =  0 Multiplicity = 1

 SCF Done:  E(RB3LYP) =  -1811.12098340     A.U. after   15 cycles
 Normal termination of Gaussian 16 at Tue Sep 22 05:28:58 2020.
 Gaussian 16:  ES64L-G16RevB.01 20-Dec-2017

 ----------------------------------------------------------------------
 #p mp2/aug-cc-pVDZ scf=(MaxCycle=2000,NoVarAcc,NoIncFock) maxdisk=120G
 B geom=allcheck
 ----------------------------------------------------------------------

 Structure from the checkpoint file:  "SM39_m0.n.1.pdb.xyz.mst.n.w.chk"
 -------------------
 SM39_m0.n.1.pdb.xyz
 -------------------
 Charge =  0 Multiplicity = 1

                         Standard orientation:
 ---------------------------------------------------------------------
 Center     Atomic      Atomic             Coordinates (Angstroms)
 Number     Number       Type             X           Y           Z
 ---------------------------------------------------------------------
      1          8           0       -0.687192   -2.464019    0.222797
      2         16           0        0.157268   -1.427710   -0.394545
      3          7           0       -0.129215   -0.036144    0.502569
      4          6           0       -0.074179    1.307954   -0.101667
      5          6           0        1.306391    1.570947   -0.800192
      6         16           0        1.518967    3.091928    0.183184
      7          6           0        0.094859    2.359868    1.050273
      8          8           0        2.760944    3.130913    0.977493
      9          8           0        1.135459    4.298015   -0.578948
     10          6           0       -1.239275    1.658897   -1.052257
     11          6           0       -2.649436    1.749352   -0.434511
     12          6           0       -3.312639    0.438811   -0.063474
     13          6           0       -3.601693    0.134455    1.273056
     14          6           0       -4.226601   -1.066267    1.619724
     15          6           0       -4.578876   -1.982131    0.628320
     16          6           0       -4.304750   -1.686816   -0.709883
     17          6           0       -3.680421   -0.487423   -1.050710
     18          6           0        1.872660   -1.816728   -0.064954
     19          6           0        2.313242   -1.936949    1.255988
     20          6           0        3.634532   -2.309119    1.490280
     21          6           0        4.494269   -2.561540    0.416520
     22          6           0        4.037509   -2.441955   -0.896012
     23          6           0        2.716542   -2.069620   -1.146320
     24          8           0        0.042922   -1.160489   -1.838504
     25          1           0       -0.956808   -0.186890    1.082119
     26          1           0        1.279660    1.739635   -1.874560
     27          1           0        2.084564    0.856571   -0.532274
     28          1           0       -0.727539    3.056197    1.206667
     29          1           0        0.417393    1.912804    1.990234
     30          1           0       -1.227708    0.934173   -1.870597
     31          1           0       -1.007998    2.635121   -1.491780
     32          1           0       -3.276586    2.262689   -1.171968
     33          1           0       -2.627417    2.399694    0.446365
     34          1           0       -3.337301    0.849231    2.047453
     35          1           0       -4.440247   -1.281126    2.662029
     36          1           0       -5.065876   -2.914837    0.892913
     37          1           0       -4.582374   -2.389543   -1.489132
     38          1           0       -3.479530   -0.265777   -2.094967
     39          1           0        1.641552   -1.733208    2.081449
     40          1           0        3.993011   -2.400708    2.509312
     41          1           0        5.522325   -2.850066    0.606078
     42          1           0        4.705702   -2.636968   -1.727068
     43          1           0        2.340048   -1.967233   -2.156264
 ---------------------------------------------------------------------

 SCF Done:  E(RHF) =  -1803.71429695     A.U. after   16 cycles
 E2 =    -0.3651896035D+01 EUMP2 =    -0.18073661929886D+04

 The electronic state is 1-A.
 Alpha  occ. eigenvalues --  -92.23814 -92.20274 -20.57229 -20.56574 -20.56293
 Alpha  occ. eigenvalues --  -20.56175 -15.62617 -11.34294 -11.29902 -11.29740
 Alpha  occ. eigenvalues --  -11.29629 -11.28323 -11.28089 -11.27721 -11.27200
 Alpha  occ. eigenvalues --  -11.27098 -11.25809 -11.25666 -11.25592 -11.25017
 Alpha  occ. eigenvalues --  -11.24826 -11.24789 -11.24430 -11.24410  -9.20586
 Alpha  occ. eigenvalues --   -9.17538  -6.89129  -6.89082  -6.88965  -6.86030
 Alpha  occ. eigenvalues --   -6.85934  -6.85866  -1.46749  -1.44447  -1.34691
 Alpha  occ. eigenvalues --   -1.33197  -1.26885  -1.19236  -1.16497  -1.14966
 Alpha  occ. eigenvalues --   -1.08073  -1.06729  -1.05274  -1.02233  -1.01140
 Alpha  occ. eigenvalues --   -0.98962  -0.94250  -0.90841  -0.86604  -0.85849
 Alpha  occ. eigenvalues --   -0.83558  -0.82403  -0.80550  -0.78452  -0.75037
 Alpha  occ. eigenvalues --   -0.72720  -0.71301  -0.70480  -0.69594  -0.68659
 Alpha  occ. eigenvalues --   -0.66785  -0.66179  -0.65144  -0.64860  -0.64590
 Alpha  occ. eigenvalues --   -0.63836  -0.62993  -0.62374  -0.62293  -0.61903
 Alpha  occ. eigenvalues --   -0.60224  -0.59247  -0.58437  -0.56120  -0.55596
 Alpha  occ. eigenvalues --   -0.55447  -0.54561  -0.53814  -0.52990  -0.52114
 Alpha  occ. eigenvalues --   -0.51349  -0.50255  -0.49644  -0.49420  -0.49029
 Alpha  occ. eigenvalues --   -0.48995  -0.48332  -0.47563  -0.46815  -0.46192
 Alpha  occ. eigenvalues --   -0.43480  -0.43001  -0.37359  -0.36757  -0.34292
 Alpha  occ. eigenvalues --   -0.33297
 Alpha virt. eigenvalues --    0.02519   0.02951   0.03510   0.03942   0.04080
 Alpha virt. eigenvalues --    0.04457   0.05145   0.05524   0.05663   0.06145
 Alpha virt. eigenvalues --    0.06391   0.07049   0.07120   0.07421   0.07830

 Mulliken charges:
               1
     1  O   -1.207607
     2  S    2.790301
     3  N   -0.788332
     4  C   -0.840967
     5  C    0.858647
     6  S    2.949830
     7  C    0.618948
     8  O   -1.243059
     9  O   -1.276424
    10  C    0.376484
    11  C    0.519956
    12  C    0.871674
    13  C    0.779736
    14  C    0.009517
    15  C    0.807513
    16  C    0.014037
    17  C    0.503351
    18  C    0.793928
    19  C    0.522791
    20  C    0.251944
    21  C    0.753700
    22  C    0.362414
    23  C    0.338577
    24  O   -1.265994
    25  H   -0.085020
    26  H   -0.345627
    27  H   -0.205552
    28  H   -0.228999
    29  H   -0.274724
    30  H   -0.144726
    31  H   -0.119696
    32  H   -0.120611
    33  H   -0.278915
    34  H   -0.756104
    35  H   -0.502740
    36  H   -0.479338
    37  H   -0.522490
    38  H   -0.723523
    39  H   -0.686560
    40  H   -0.490855
    41  H   -0.444407
    42  H   -0.458987
    43  H   -0.632091
 Sum of Mulliken charges =  -0.00000

 Dipole moment (field-independent basis, Debye):
    X=             -0.3307    Y=             -3.1429    Z=              1.4612  Tot=              3.4817
 Quadrupole moment (field-independent basis, Debye-Ang):
   XX=           -149.7125   YY=           -186.0453   ZZ=           -147.8806
   XY=            -25.5045   XZ=             -4.9151   YZ=             -0.6515

 Normal termination of Gaussian 16 at Tue Sep 22 07:47:03 2020.
