 Gaussian 16, Revision B.01,

 ----------------------------------------------------------------------
 #p b3lyp/6-31G(d) opt freq NoSymm scf=(MaxCycle=2000,NoVarAcc,NoIncFoc
 k) scrf=(iefpcm,read,solvent=water)
 ----------------------------------------------------------------------

 --------------------
 SM39_m1.a.10.pdb.xyz
 --------------------
 Symbolic Z-matrix:
 Charge = -1 Multiplicity = 1

 SCF Done:  E(RB3LYP) =  -1810.66741579     A.U. after   13 cycles
 SCF Done:  E(RB3LYP) =  -1810.66924318     A.U. after   11 cycles
 SCF Done:  E(RB3LYP) =  -1810.66915580     A.U. after   10 cycles
 SCF Done:  E(RB3LYP) =  -1810.66939738     A.U. after   11 cycles
 SCF Done:  E(RB3LYP) =  -1810.66948222     A.U. after   10 cycles
 SCF Done:  E(RB3LYP) =  -1810.66958776     A.U. after    9 cycles
 SCF Done:  E(RB3LYP) =  -1810.66957809     A.U. after    9 cycles
 SCF Done:  E(RB3LYP) =  -1810.66955802     A.U. after   10 cycles
 SCF Done:  E(RB3LYP) =  -1810.66958517     A.U. after   10 cycles
 SCF Done:  E(RB3LYP) =  -1810.66958766     A.U. after    9 cycles
 SCF Done:  E(RB3LYP) =  -1810.66959294     A.U. after    8 cycles
 SCF Done:  E(RB3LYP) =  -1810.66957972     A.U. after    8 cycles
 SCF Done:  E(RB3LYP) =  -1810.66958227     A.U. after    8 cycles
 SCF Done:  E(RB3LYP) =  -1810.66957732     A.U. after    8 cycles
 SCF Done:  E(RB3LYP) =  -1810.66957844     A.U. after    7 cycles
 SCF Done:  E(RB3LYP) =  -1810.66957757     A.U. after    6 cycles
 Optimization completed.
    -- Stationary point found.
 Normal termination of Gaussian 16 at Thu Sep 24 01:16:22 2020.

 --------------------------------------------------------------------
 #P Geom=AllCheck Guess=TCheck SCRF=Check GenChk RB3LYP/6-31G(d) Freq
 --------------------------------------------------------------------

 Structure from the checkpoint file:  "SM39_m1.a.10.pdb.xyz.mst.a.w.chk"
 --------------------
 SM39_m1.a.10.pdb.xyz
 --------------------
 Charge = -1 Multiplicity = 1

 SCF Done:  E(RB3LYP) =  -1810.66957757     A.U. after    1 cycles

  Exact polarizability: 326.390  14.950 273.979  23.670 -15.697 309.861
 Approx polarizability: 351.869   8.587 308.339  24.375 -19.122 376.718

                      1                      2                      3
                      A                      A                      A
 Frequencies --     14.6917                19.8015                36.7515
 Red. masses --      7.1250                 5.4575                 4.4581
 Frc consts  --      0.0009                 0.0013                 0.0035
 IR Inten    --      1.8827                 1.4201                 2.4507

                      4                      5                      6
                      A                      A                      A
 Frequencies --     36.9846                48.0524                48.9075
 Red. masses --      5.9236                 3.9779                 5.2828
 Frc consts  --      0.0048                 0.0054                 0.0074
 IR Inten    --      0.6906                 0.5233                 2.8309

                      7                      8                      9
                      A                      A                      A
 Frequencies --     64.2118                97.6377               128.2849
 Red. masses --      5.1338                 4.9544                 7.6751
 Frc consts  --      0.0125                 0.0278                 0.0744
 IR Inten    --      6.9331                 0.5529                 3.0445

                     10                     11                     12
                      A                      A                      A
 Frequencies --    139.5743               173.9411               186.6140
 Red. masses --      7.6833                 5.4496                 4.9952
 Frc consts  --      0.0882                 0.0971                 0.1025
 IR Inten    --      3.5615                 5.9660                 6.7257

                     13                     14                     15
                      A                      A                      A
 Frequencies --    199.2204               232.5491               264.9298
 Red. masses --      6.3332                 6.3907                 3.4750
 Frc consts  --      0.1481                 0.2036                 0.1437
 IR Inten    --      4.9329                 3.0120                 2.2783

                     16                     17                     18
                      A                      A                      A
 Frequencies --    292.9895               298.6103               306.8560
 Red. masses --      3.7620                 3.7211                 5.2363
 Frc consts  --      0.1903                 0.1955                 0.2905
 IR Inten    --     12.3287                14.4962                 9.6960

                     19                     20                     21
                      A                      A                      A
 Frequencies --    315.9284               326.6064               344.3608
 Red. masses --      5.2869                 2.9625                 3.2328
 Frc consts  --      0.3109                 0.1862                 0.2259
 IR Inten    --      8.9326                 6.6474                 4.6426

                     22                     23                     24
                      A                      A                      A
 Frequencies --    390.9653               405.8342               415.0404
 Red. masses --      4.2616                 3.2807                 2.9800
 Frc consts  --      0.3838                 0.3184                 0.3024
 IR Inten    --     14.7105                11.4550                 0.3825

                     25                     26                     27
                      A                      A                      A
 Frequencies --    419.1587               445.6433               463.3679
 Red. masses --      2.9492                 4.4773                 4.3902
 Frc consts  --      0.3053                 0.5239                 0.5554
 IR Inten    --      0.0193                26.1586                14.6529

                     28                     29                     30
                      A                      A                      A
 Frequencies --    466.0712               497.6024               521.2116
 Red. masses --      7.4031                 3.6080                 4.1160
 Frc consts  --      0.9475                 0.5264                 0.6588
 IR Inten    --     68.2652                 5.0032                 6.1388

                     31                     32                     33
                      A                      A                      A
 Frequencies --    549.3812               571.3857               599.6733
 Red. masses --      8.0842                 3.6090                 4.8945
 Frc consts  --      1.4376                 0.6942                 1.0370
 IR Inten    --    143.8013                89.2451               175.7959

                     34                     35                     36
                      A                      A                      A
 Frequencies --    615.9627               628.3399               634.1608
 Red. masses --      6.0129                 6.4350                 6.3432
 Frc consts  --      1.3441                 1.4969                 1.5030
 IR Inten    --     36.8534                 0.7255                 0.3313

                     37                     38                     39
                      A                      A                      A
 Frequencies --    683.4740               704.9811               715.2461
 Red. masses --      5.0097                 2.4897                 2.1457
 Frc consts  --      1.3788                 0.7290                 0.6467
 IR Inten    --     42.3802                40.7452                15.2992

                     40                     41                     42
                      A                      A                      A
 Frequencies --    716.6113               754.3646               761.2797
 Red. masses --      4.4266                 1.9708                 3.7189
 Frc consts  --      1.3393                 0.6608                 1.2698
 IR Inten    --    119.5956                35.6074                65.0888

                     43                     44                     45
                      A                      A                      A
 Frequencies --    764.2812               777.6508               790.1774
 Red. masses --      1.5570                 3.5763                 2.7867
 Frc consts  --      0.5359                 1.2743                 1.0251
 IR Inten    --     23.2229                20.5600                17.8453

                     46                     47                     48
                      A                      A                      A
 Frequencies --    823.7930               839.5605               864.6327
 Red. masses --      1.7043                 3.7276                 1.2559
 Frc consts  --      0.6815                 1.5480                 0.5532
 IR Inten    --     19.6352                81.1296                 0.1177

                     49                     50                     51
                      A                      A                      A
 Frequencies --    865.3371               880.4371               912.9925
 Red. masses --      1.2468                 2.3885                 1.9823
 Frc consts  --      0.5501                 1.0909                 0.9735
 IR Inten    --      0.2624                 4.4226                22.6940

                     52                     53                     54
                      A                      A                      A
 Frequencies --    936.8881               938.2613               972.2395
 Red. masses --      1.5173                 1.5188                 2.2782
 Frc consts  --      0.7847                 0.7878                 1.2688
 IR Inten    --      1.8979                 8.8341                 4.8673

                     55                     56                     57
                      A                      A                      A
 Frequencies --    976.0133               984.9930               999.5024
 Red. masses --      1.3709                 1.3537                 1.8764
 Frc consts  --      0.7694                 0.7738                 1.1044
 IR Inten    --      0.7590                 0.3250                52.5927

                     58                     59                     60
                      A                      A                      A
 Frequencies --   1000.6075              1009.9355              1014.2447
 Red. masses --      1.2988                 1.2601                 4.7270
 Frc consts  --      0.7662                 0.7572                 2.8649
 IR Inten    --      1.8972                 0.2832                 3.2034

                     61                     62                     63
                      A                      A                      A
 Frequencies --   1016.1946              1027.1784              1034.6225
 Red. masses --      5.9940                 1.3016                 2.4173
 Frc consts  --      3.6469                 0.8091                 1.5246
 IR Inten    --      0.5184                 1.7986                18.5493

                     64                     65                     66
                      A                      A                      A
 Frequencies --   1045.4544              1054.4559              1057.0741
 Red. masses --      3.5475                 2.6818                 2.1628
 Frc consts  --      2.2844                 1.7568                 1.4239
 IR Inten    --    142.5960                87.1646                 4.0493

                     67                     68                     69
                      A                      A                      A
 Frequencies --   1074.4384              1085.6043              1103.2924
 Red. masses --      3.4444                 3.0024                 1.5777
 Frc consts  --      2.3428                 2.0848                 1.1315
 IR Inten    --    282.9738               288.5401                17.3963

                     70                     71                     72
                      A                      A                      A
 Frequencies --   1110.3850              1115.3545              1141.0737
 Red. masses --      2.0282                 3.2532                 3.2605
 Frc consts  --      1.4734                 2.3845                 2.5013
 IR Inten    --    108.7369               138.6034                78.0521

                     73                     74                     75
                      A                      A                      A
 Frequencies --   1165.5400              1183.5455              1188.6980
 Red. masses --      1.4715                 1.0912                 5.9526
 Frc consts  --      1.1778                 0.9006                 4.9556
 IR Inten    --    115.8335                 0.0825               366.4256

                     76                     77                     78
                      A                      A                      A
 Frequencies --   1190.4267              1195.9713              1203.6509
 Red. masses --      1.1167                 1.5264                 1.1714
 Frc consts  --      0.9324                 1.2864                 0.9999
 IR Inten    --      9.5805                66.1790                 4.6167

                     79                     80                     81
                      A                      A                      A
 Frequencies --   1204.1921              1231.2479              1239.5519
 Red. masses --      1.1405                 2.4327                 1.6946
 Frc consts  --      0.9744                 2.1728                 1.5341
 IR Inten    --      2.1437                 3.3441                86.9652

                     82                     83                     84
                      A                      A                      A
 Frequencies --   1250.7745              1263.4401              1289.5443
 Red. masses --      7.1769                 2.2504                 1.3925
 Frc consts  --      6.6153                 2.1165                 1.3643
 IR Inten    --    374.7127               108.7517                52.6897

                     85                     86                     87
                      A                      A                      A
 Frequencies --   1336.8964              1350.5348              1356.4445
 Red. masses --      1.5749                 2.5701                 4.2341
 Frc consts  --      1.6585                 2.7620                 4.5900
 IR Inten    --      1.8722                 1.3660                 0.3986

                     88                     89                     90
                      A                      A                      A
 Frequencies --   1362.2740              1387.5360              1391.1787
 Red. masses --      1.7896                 1.3726                 1.4207
 Frc consts  --      1.9567                 1.5570                 1.6200
 IR Inten    --      0.6034                 6.8246                 7.0971

                     91                     92                     93
                      A                      A                      A
 Frequencies --   1450.0398              1466.7058              1486.2405
 Red. masses --      1.0923                 1.0945                 2.1327
 Frc consts  --      1.3531                 1.3873                 2.7757
 IR Inten    --     23.4144                 4.0465                17.4595

                     94                     95                     96
                      A                      A                      A
 Frequencies --   1493.3814              1501.4808              1507.0743
 Red. masses --      1.5271                 1.2890                 1.1807
 Frc consts  --      2.0066                 1.7122                 1.5801
 IR Inten    --      5.2042                17.1718                 1.7007

                     97                     98                     99
                      A                      A                      A
 Frequencies --   1523.1959              1541.7898              1638.4124
 Red. masses --      2.0609                 2.2479                 5.8080
 Frc consts  --      2.8172                 3.1483                 9.1860
 IR Inten    --      8.1798                17.6263                 0.3602

                    100                    101                    102
                      A                      A                      A
 Frequencies --   1639.8919              1642.8407              1660.3103
 Red. masses --      5.4753                 5.4300                 5.6663
 Frc consts  --      8.6754                 8.6346                 9.2030
 IR Inten    --      1.4154                 1.6239                10.5053

                    103                    104                    105
                      A                      A                      A
 Frequencies --   3056.0758              3063.7768              3102.2721
 Red. masses --      1.0654                 1.0654                 1.1006
 Frc consts  --      5.8624                 5.8924                 6.2411
 IR Inten    --     25.6423                57.4327                52.3107

                    106                    107                    108
                      A                      A                      A
 Frequencies --   3132.1113              3137.2690              3147.9589
 Red. masses --      1.0940                 1.0606                 1.0590
 Frc consts  --      6.3232                 6.1503                 6.1832
 IR Inten    --     32.4228                 5.3857                 3.4621

                    109                    110                    111
                      A                      A                      A
 Frequencies --   3188.2930              3195.4816              3203.7355
 Red. masses --      1.0874                 1.0865                 1.0857
 Frc consts  --      6.5123                 6.5366                 6.5658
 IR Inten    --     17.9837                10.8766                 0.3562

                    112                    113                    114
                      A                      A                      A
 Frequencies --   3206.5067              3211.2160              3212.5734
 Red. masses --      1.0901                 1.0938                 1.0889
 Frc consts  --      6.6037                 6.6453                 6.6213
 IR Inten    --      9.1912                75.1908                18.5071

                    115                    116                    117
                      A                      A                      A
 Frequencies --   3222.3393              3222.5622              3227.4810
 Red. masses --      1.0925                 1.1074                 1.0970
 Frc consts  --      6.6837                 6.7756                 6.7327
 IR Inten    --     35.9106                 5.1699                38.8031

                    118                    119                    120
                      A                      A                      A
 Frequencies --   3228.8503              3231.6499              3240.9362
 Red. masses --      1.0958                 1.1088                 1.0927
 Frc consts  --      6.7307                 6.8229                 6.7625
 IR Inten    --     30.4456                 1.7171                10.8422

 - Thermochemistry -
 -------------------
 Temperature   298.150 Kelvin.  Pressure   1.00000 Atm.
 Atom     1 has atomic number  8 and mass  15.99491

 Molecular mass:   364.06773 amu.
 Principal axes and moments of inertia in atomic units:
                           1         2         3
     Eigenvalues --  6943.58547********************
           X            0.99883   0.02807   0.03926
           Y           -0.03105   0.99652   0.07735
           Z           -0.03695  -0.07848   0.99623
 This molecule is an asymmetric top.
 Rotational symmetry number  1.
 Warning -- assumption of classical behavior for rotation
           may cause significant error
 Rotational temperatures (Kelvin)      0.01247     0.00793     0.00586
 Rotational constants (GHZ):           0.25991     0.16517     0.12208
 Zero-point vibrational energy     857290.8 (Joules/Mol)
                                  204.89743 (Kcal/Mol)
 Warning -- explicit consideration of  34 degrees of freedom as
           vibrations may cause significant error
 Vibrational temperatures:     21.14    28.49    52.88    53.21    69.14
          (Kelvin)             70.37    92.39   140.48   184.57   200.82
                              250.26   268.50   286.63   334.59   381.17
                              421.55   429.63   441.50   454.55   469.91
                              495.46   562.51   583.90   597.15   603.08
                              641.18   666.68   670.57   715.94   749.91
                              790.44   822.10   862.80   886.23   904.04
                              912.42   983.37  1014.31  1029.08  1031.04
                             1085.36  1095.31  1099.63  1118.87  1136.89
                             1185.25  1207.94  1244.01  1245.03  1266.75
                             1313.59  1347.97  1349.95  1398.84  1404.27
                             1417.19  1438.06  1439.65  1453.07  1459.27
                             1462.08  1477.88  1488.59  1504.18  1517.13
                             1520.89  1545.88  1561.94  1587.39  1597.60
                             1604.75  1641.75  1676.95  1702.86  1710.27
                             1712.76  1720.74  1731.79  1732.56  1771.49
                             1783.44  1799.59  1817.81  1855.37  1923.50
                             1943.12  1951.62  1960.01  1996.35  2001.60
                             2086.28  2110.26  2138.37  2148.64  2160.30
                             2168.34  2191.54  2218.29  2357.31  2359.44
                             2363.68  2388.82  4397.01  4408.09  4463.48
                             4506.41  4513.83  4529.21  4587.24  4597.59
                             4609.46  4613.45  4620.22  4622.18  4636.23
                             4636.55  4643.63  4645.60  4649.62  4662.98

 Zero-point correction=                           0.326525 (Hartree/Particle)
 Thermal correction to Energy=                    0.348221
 Thermal correction to Enthalpy=                  0.349165
 Thermal correction to Gibbs Free Energy=         0.272550
 Sum of electronic and zero-point Energies=          -1810.343053
 Sum of electronic and thermal Energies=             -1810.321357
 Sum of electronic and thermal Enthalpies=           -1810.320413
 Sum of electronic and thermal Free Energies=        -1810.397028

                     E (Thermal)             CV                S
                      KCal/Mol        Cal/Mol-Kelvin    Cal/Mol-Kelvin
 Total                  218.512             84.305            161.250
 Electronic               0.000              0.000              0.000
 Translational            0.889              2.981             43.570
 Rotational               0.889              2.981             35.371
 Vibrational            216.734             78.344             82.309
 Vibration     1          0.593              1.986              7.247
 Vibration     2          0.593              1.986              6.654
 Vibration     3          0.594              1.982              5.427
 Vibration     4          0.594              1.982              5.414
 Vibration     5          0.595              1.978              4.896
 Vibration     6          0.595              1.978              4.861
 Vibration     7          0.597              1.971              4.323
 Vibration     8          0.603              1.951              3.501
 Vibration     9          0.611              1.925              2.972
 Vibration    10          0.615              1.914              2.810
 Vibration    11          0.627              1.875              2.392
 Vibration    12          0.632              1.858              2.261
 Vibration    13          0.637              1.841              2.140
 Vibration    14          0.653              1.791              1.859
 Vibration    15          0.671              1.737              1.629
 Vibration    16          0.688              1.687              1.457
 Vibration    17          0.692              1.676              1.425
 Vibration    18          0.697              1.661              1.379
 Vibration    19          0.703              1.643              1.331
 Vibration    20          0.710              1.622              1.277
 Vibration    21          0.723              1.587              1.192
 Vibration    22          0.759              1.489              0.996
 Vibration    23          0.771              1.458              0.941
 Vibration    24          0.778              1.438              0.909
 Vibration    25          0.782              1.429              0.895
 Vibration    26          0.805              1.371              0.809
 Vibration    27          0.821              1.331              0.756
 Vibration    28          0.823              1.325              0.749
 Vibration    29          0.853              1.255              0.664
 Vibration    30          0.876              1.203              0.607
 Vibration    31          0.905              1.141              0.545
 Vibration    32          0.928              1.093              0.502
 Vibration    33          0.958              1.032              0.450
 Vibration    34          0.976              0.998              0.423

 Optimization completed.
    -- Stationary point found.
 Normal termination of Gaussian 16 at Thu Sep 24 01:43:40 2020.

 ----------------------------------------------------------------------
 #p b3lyp/6-31G(d) scrf=(iefpcm,read,solvent=water) geom=allcheck guess
 =read
 ----------------------------------------------------------------------

 Structure from the checkpoint file:  "SM39_m1.a.10.pdb.xyz.mst.a.w.chk"
 --------------------
 SM39_m1.a.10.pdb.xyz
 --------------------
 Charge = -1 Multiplicity = 1

 SCF Done:  E(RB3LYP) =  -1810.66955018     A.U. after    7 cycles
 Normal termination of Gaussian 16 at Thu Sep 24 01:44:54 2020.

 -----------------------------
 #p B3LYP/6-31G* geom=allcheck
 -----------------------------

 Structure from the checkpoint file:  "SM39_m1.a.10.pdb.xyz.mst.a.w.chk"
 --------------------
 SM39_m1.a.10.pdb.xyz
 --------------------
 Charge = -1 Multiplicity = 1

 SCF Done:  E(RB3LYP) =  -1810.57676133     A.U. after   15 cycles
 Normal termination of Gaussian 16 at Thu Sep 24 01:46:25 2020.
 Gaussian 16:  ES64L-G16RevB.01 20-Dec-2017

 ----------------------------------------------------------------------
 #p mp2/aug-cc-pVDZ scf=(MaxCycle=2000,NoVarAcc,NoIncFock) maxdisk=120G
 B geom=allcheck
 ----------------------------------------------------------------------

 Structure from the checkpoint file:  "SM39_m1.a.10.pdb.xyz.mst.a.w.chk"
 --------------------
 SM39_m1.a.10.pdb.xyz
 --------------------
 Charge = -1 Multiplicity = 1

                         Standard orientation:
 ---------------------------------------------------------------------
 Center     Atomic      Atomic             Coordinates (Angstroms)
 Number     Number       Type             X           Y           Z
 ---------------------------------------------------------------------
      1          8           0        2.328161    2.319071    0.347401
      2         16           0        2.011419    1.040301    1.057514
      3          7           0        0.470459    0.674488    1.117502
      4          6           0       -0.412297    0.924117   -0.011937
      5          6           0       -0.362749    2.385827   -0.627216
      6         16           0       -2.152130    2.557518   -0.402050
      7          6           0       -1.882189    1.033009    0.544501
      8          8           0       -2.563930    3.722730    0.413219
      9          8           0       -2.902192    2.301667   -1.656383
     10          6           0       -0.321006   -0.110062   -1.160712
     11          6           0       -0.392735   -1.596528   -0.757251
     12          6           0       -1.730042   -2.092297   -0.247327
     13          6           0       -2.826365   -2.239209   -1.111367
     14          6           0       -4.055039   -2.703025   -0.638929
     15          6           0       -4.208659   -3.037013    0.709480
     16          6           0       -3.124047   -2.905017    1.578237
     17          6           0       -1.897465   -2.437765    1.100384
     18          6           0        2.969036   -0.203831    0.146810
     19          6           0        3.513646    0.112130   -1.098714
     20          6           0        4.235903   -0.853414   -1.804173
     21          6           0        4.413484   -2.128130   -1.264003
     22          6           0        3.870645   -2.438571   -0.013081
     23          6           0        3.147226   -1.478720    0.694946
     24          8           0        2.536013    0.943776    2.449074
     25          1           0       -0.044434    2.482488   -1.665989
     26          1           0        0.173993    3.085065    0.008241
     27          1           0       -2.571704    0.233599    0.287477
     28          1           0       -1.901466    1.247939    1.612439
     29          1           0        0.633281    0.048751   -1.673618
     30          1           0       -1.102899    0.111224   -1.897212
     31          1           0        0.370895   -1.794407   -0.001900
     32          1           0       -0.116804   -2.180029   -1.643576
     33          1           0       -2.715417   -1.990281   -2.163415
     34          1           0       -4.890384   -2.809955   -1.323592
     35          1           0       -5.162236   -3.400040    1.076377
     36          1           0       -3.230724   -3.165919    2.626603
     37          1           0       -1.056161   -2.330002    1.778848
     38          1           0        3.377184    1.111467   -1.494086
     39          1           0        4.662321   -0.606865   -2.771129
     40          1           0        4.976065   -2.876882   -1.811698
     41          1           0        4.014305   -3.426629    0.412012
     42          1           0        2.733851   -1.713005    1.669901
 ---------------------------------------------------------------------

 SCF Done:  E(RHF) =  -1803.17459974     A.U. after   16 cycles
 E2 =    -0.3666297630D+01 EUMP2 =    -0.18068408973731D+04

 The electronic state is 1-A.
 Alpha  occ. eigenvalues --  -92.06819 -92.06057 -20.43702 -20.43669 -20.39916
 Alpha  occ. eigenvalues --  -20.38912 -15.39391 -11.18797 -11.16547 -11.16449
 Alpha  occ. eigenvalues --  -11.16404 -11.16341 -11.16261 -11.16218 -11.16076
 Alpha  occ. eigenvalues --  -11.16050 -11.15819 -11.15756 -11.15583 -11.15396
 Alpha  occ. eigenvalues --  -11.15393 -11.15112 -11.13928 -11.13266  -9.04212
 Alpha  occ. eigenvalues --   -9.02716  -6.72705  -6.72599  -6.72512  -6.71282
 Alpha  occ. eigenvalues --   -6.71191  -6.71150  -1.31591  -1.28498  -1.20470
 Alpha  occ. eigenvalues --   -1.16303  -1.08201  -1.07214  -1.06912  -0.98609
 Alpha  occ. eigenvalues --   -0.97340  -0.93687  -0.93463  -0.93347  -0.90254
 Alpha  occ. eigenvalues --   -0.84441  -0.80693  -0.77134  -0.74725  -0.74378
 Alpha  occ. eigenvalues --   -0.73119  -0.70270  -0.67382  -0.64095  -0.61567
 Alpha  occ. eigenvalues --   -0.60604  -0.57222  -0.56263  -0.55679  -0.54657
 Alpha  occ. eigenvalues --   -0.54406  -0.54198  -0.53717  -0.52403  -0.51097
 Alpha  occ. eigenvalues --   -0.50644  -0.50416  -0.49597  -0.49219  -0.48486
 Alpha  occ. eigenvalues --   -0.48246  -0.46526  -0.45380  -0.43437  -0.42528
 Alpha  occ. eigenvalues --   -0.42097  -0.41812  -0.41223  -0.40917  -0.39478
 Alpha  occ. eigenvalues --   -0.38951  -0.37495  -0.36713  -0.36488  -0.34473
 Alpha  occ. eigenvalues --   -0.34023  -0.33293  -0.31831  -0.30593  -0.29569
 Alpha  occ. eigenvalues --   -0.26164  -0.25720  -0.25384  -0.25240  -0.24198
 Alpha  occ. eigenvalues --   -0.21711
 Alpha virt. eigenvalues --    0.09192   0.09370   0.10317   0.10543   0.11090
 Alpha virt. eigenvalues --    0.11708   0.12160   0.13152   0.13877   0.14523
 Alpha virt. eigenvalues --    0.14733   0.14793   0.15325   0.16122   0.16503

 Mulliken charges:
               1
     1  O   -1.374173
     2  S    3.062727
     3  N   -2.029642
     4  C    0.298568
     5  C    0.553295
     6  S    3.002865
     7  C    0.559260
     8  O   -1.307373
     9  O   -1.329445
    10  C    0.667592
    11  C    0.060119
    12  C    0.996270
    13  C    0.466051
    14  C    0.087443
    15  C    0.731630
    16  C   -0.120815
    17  C    0.941466
    18  C    0.349225
    19  C    0.666620
    20  C    0.277754
    21  C    0.676875
    22  C    0.202483
    23  C    0.412393
    24  O   -1.265987
    25  H   -0.331217
    26  H   -0.249119
    27  H   -0.162474
    28  H   -0.319917
    29  H   -0.185809
    30  H   -0.211249
    31  H   -0.334335
    32  H   -0.123853
    33  H   -0.686968
    34  H   -0.498328
    35  H   -0.468282
    36  H   -0.498909
    37  H   -0.697964
    38  H   -0.650901
    39  H   -0.512216
    40  H   -0.484026
    41  H   -0.541297
    42  H   -0.628337
 Sum of Mulliken charges =  -1.00000

 Dipole moment (field-independent basis, Debye):
    X=             -0.3896    Y=            -10.2331    Z=             -4.7891  Tot=             11.3050
 Quadrupole moment (field-independent basis, Debye-Ang):
   XX=           -201.8499   YY=           -198.6795   ZZ=           -174.5712
   XY=              6.9207   XZ=            -22.3656   YZ=             -8.0871

 Normal termination of Gaussian 16 at Thu Sep 24 03:44:46 2020.
