 Gaussian 16, Revision B.01,

 ----------------------------------------------------------------------
 #p b3lyp/6-31G(d) opt freq NoSymm scf=(MaxCycle=2000,NoVarAcc,NoIncFoc
 k) scrf=(iefpcm,read,solvent=water) MaxDisk=20GB
 ----------------------------------------------------------------------

 --------------------
 SM39_m0.n.14.pdb.xyz
 --------------------
 Symbolic Z-matrix:
 Charge =  0 Multiplicity = 1

 SCF Done:  E(RB3LYP) =  -1811.15199293     A.U. after   13 cycles
 SCF Done:  E(RB3LYP) =  -1811.15152976     A.U. after   10 cycles
 SCF Done:  E(RB3LYP) =  -1811.15174621     A.U. after   10 cycles
 SCF Done:  E(RB3LYP) =  -1811.15198790     A.U. after   10 cycles
 SCF Done:  E(RB3LYP) =  -1811.15198665     A.U. after    6 cycles
 SCF Done:  E(RB3LYP) =  -1811.15198635     A.U. after    4 cycles
 SCF Done:  E(RB3LYP) =  -1811.15198628     A.U. after    4 cycles
 SCF Done:  E(RB3LYP) =  -1811.15198627     A.U. after    2 cycles
 SCF Done:  E(RB3LYP) =  -1811.15176927     A.U. after   10 cycles
 SCF Done:  E(RB3LYP) =  -1811.15199071     A.U. after   10 cycles
 SCF Done:  E(RB3LYP) =  -1811.15177413     A.U. after    8 cycles
 SCF Done:  E(RB3LYP) =  -1811.15177267     A.U. after    7 cycles
 SCF Done:  E(RB3LYP) =  -1811.15177246     A.U. after    8 cycles
 SCF Done:  E(RB3LYP) =  -1811.15177266     A.U. after    7 cycles
 SCF Done:  E(RB3LYP) =  -1811.15177267     A.U. after    6 cycles
 SCF Done:  E(RB3LYP) =  -1811.15177338     A.U. after    6 cycles
 Optimization completed.
    -- Stationary point found.
 Normal termination of Gaussian 16 at Tue Sep 15 08:25:27 2020.

 --------------------------------------------------------------------
 #P Geom=AllCheck Guess=TCheck SCRF=Check GenChk RB3LYP/6-31G(d) Freq
 --------------------------------------------------------------------

 Structure from the checkpoint file:  "SM39_m0.n.14.pdb.xyz.mst.n.w.chk"
 --------------------
 SM39_m0.n.14.pdb.xyz
 --------------------
 Charge =  0 Multiplicity = 1

 SCF Done:  E(RB3LYP) =  -1811.15177338     A.U. after    1 cycles

  Exact polarizability: 327.297  22.264 273.148 -27.801  -9.782 279.623
 Approx polarizability: 369.035  33.482 311.550 -29.220 -20.647 326.717

 ******    1 imaginary frequencies (negative Signs) ******

                      1                      2                      3
                      A                      A                      A
 Frequencies --    -18.9894                14.7626                19.9549
 Red. masses --      3.7457                 6.7109                 5.9321
 Frc consts  --      0.0008                 0.0009                 0.0014
 IR Inten    --      0.0085                 1.7409                 1.2127

                      4                      5                      6
                      A                      A                      A
 Frequencies --     26.2095                31.1711                44.8189
 Red. masses --      5.2125                 4.6195                 7.5439
 Frc consts  --      0.0021                 0.0026                 0.0089
 IR Inten    --      1.6578                 1.0801                 6.1461

                      7                      8                      9
                      A                      A                      A
 Frequencies --     67.4994                98.3803               128.2501
 Red. masses --      5.2345                 4.5661                 5.9369
 Frc consts  --      0.0141                 0.0260                 0.0575
 IR Inten    --      0.6755                 0.9952                 5.6397

                     10                     11                     12
                      A                      A                      A
 Frequencies --    135.4310               149.1761               174.5792
 Red. masses --      5.6140                 7.1253                 5.3728
 Frc consts  --      0.0607                 0.0934                 0.0965
 IR Inten    --      2.0595                 6.8385                 8.6612

                     13                     14                     15
                      A                      A                      A
 Frequencies --    207.0118               237.1503               254.5432
 Red. masses --      5.7127                 4.5083                 4.8985
 Frc consts  --      0.1442                 0.1494                 0.1870
 IR Inten    --      3.0333                 6.1180                 5.6083

                     16                     17                     18
                      A                      A                      A
 Frequencies --    260.8297               284.1768               306.6886
 Red. masses --      4.3559                 3.0213                 7.6541
 Frc consts  --      0.1746                 0.1438                 0.4242
 IR Inten    --      7.2401                 0.8078                 8.0093

                     19                     20                     21
                      A                      A                      A
 Frequencies --    318.6502               332.4139               361.2056
 Red. masses --      2.6736                 3.4451                 3.0216
 Frc consts  --      0.1599                 0.2243                 0.2323
 IR Inten    --      2.0242                 9.8625                 8.7343

                     22                     23                     24
                      A                      A                      A
 Frequencies --    373.6961               387.6512               401.2759
 Red. masses --      3.6423                 4.4592                 4.6156
 Frc consts  --      0.2997                 0.3948                 0.4379
 IR Inten    --     14.4304                 6.6847                 7.1495

                     25                     26                     27
                      A                      A                      A
 Frequencies --    412.0253               418.4088               445.1016
 Red. masses --      2.9580                 2.9672                 2.2544
 Frc consts  --      0.2959                 0.3061                 0.2631
 IR Inten    --      2.3835                 0.0538                58.3011

                     28                     29                     30
                      A                      A                      A
 Frequencies --    458.6715               490.8983               495.7953
 Red. masses --      4.1084                 2.7897                 4.1848
 Frc consts  --      0.5092                 0.3961                 0.6061
 IR Inten    --     66.5359                84.2625                48.3203

                     31                     32                     33
                      A                      A                      A
 Frequencies --    523.8607               551.9625               569.8062
 Red. masses --      3.4368                 9.1572                 7.3983
 Frc consts  --      0.5557                 1.6437                 1.4153
 IR Inten    --     41.8075               114.2206               126.9824

                     34                     35                     36
                      A                      A                      A
 Frequencies --    603.7858               612.2221               625.8961
 Red. masses --      4.9068                 4.7267                 6.4395
 Frc consts  --      1.0539                 1.0438                 1.4863
 IR Inten    --     98.9913                49.4722                 0.4652

                     37                     38                     39
                      A                      A                      A
 Frequencies --    634.6118               697.0591               714.8454
 Red. masses --      6.3150                 2.4740                 4.1600
 Frc consts  --      1.4985                 0.7083                 1.2525
 IR Inten    --      0.3202                44.5776                21.0574

                     40                     41                     42
                      A                      A                      A
 Frequencies --    715.5271               732.1166               752.1188
 Red. masses --      2.1673                 2.8941                 5.6698
 Frc consts  --      0.6538                 0.9140                 1.8897
 IR Inten    --     17.8719                44.3481                74.2032

                     43                     44                     45
                      A                      A                      A
 Frequencies --    766.1852               768.0167               779.3333
 Red. masses --      1.8611                 1.4840                 1.3717
 Frc consts  --      0.6437                 0.5157                 0.4909
 IR Inten    --     25.0421                38.0025                29.6199

                     46                     47                     48
                      A                      A                      A
 Frequencies --    812.1748               822.8883               836.5731
 Red. masses --      3.7081                 1.5579                 3.8171
 Frc consts  --      1.4411                 0.6215                 1.5739
 IR Inten    --      1.9093                14.6097                27.6059

                     49                     50                     51
                      A                      A                      A
 Frequencies --    861.1976               865.8900               888.8602
 Red. masses --      1.2474                 1.2510                 3.1078
 Frc consts  --      0.5451                 0.5526                 1.4467
 IR Inten    --      0.3400                 0.2457               193.3847

                     52                     53                     54
                      A                      A                      A
 Frequencies --    908.5092               932.6393               949.4697
 Red. masses --      2.4059                 1.4980                 1.3146
 Frc consts  --      1.1700                 0.7677                 0.6982
 IR Inten    --     28.8567                 7.8973                 2.5545

                     55                     56                     57
                      A                      A                      A
 Frequencies --    977.1882               987.6371               992.3092
 Red. masses --      1.3684                 2.2571                 1.3562
 Frc consts  --      0.7699                 1.2972                 0.7868
 IR Inten    --      0.5685                17.9258                 0.4576

                     58                     59                     60
                      A                      A                      A
 Frequencies --   1001.4096              1006.9126              1014.4964
 Red. masses --      1.2937                 2.0639                 5.7621
 Frc consts  --      0.7644                 1.2329                 3.4941
 IR Inten    --      2.2741                43.5659                10.0725

                     61                     62                     63
                      A                      A                      A
 Frequencies --   1016.8524              1021.3345              1040.0738
 Red. masses --      6.1931                 1.2878                 1.4156
 Frc consts  --      3.7729                 0.7915                 0.9023
 IR Inten    --      0.1199                 0.1230                17.7826

                     64                     65                     66
                      A                      A                      A
 Frequencies --   1044.8288              1049.2407              1054.9773
 Red. masses --      1.8047                 3.0873                 2.1809
 Frc consts  --      1.1608                 2.0026                 1.4301
 IR Inten    --     16.6337                23.3933                 7.6872

                     67                     68                     69
                      A                      A                      A
 Frequencies --   1072.4319              1080.3327              1084.0104
 Red. masses --      3.5026                 2.7752                 2.2541
 Frc consts  --      2.3734                 1.9084                 1.5606
 IR Inten    --    275.6786                56.1177                63.6551

                     70                     71                     72
                      A                      A                      A
 Frequencies --   1109.0818              1111.0256              1127.4027
 Red. masses --      2.4856                 1.6162                 4.0165
 Frc consts  --      1.8014                 1.1754                 3.0079
 IR Inten    --     75.9363                11.6312               244.0549

                     73                     74                     75
                      A                      A                      A
 Frequencies --   1144.7929              1182.7963              1193.1205
 Red. masses --      1.7930                 1.0877                 1.3165
 Frc consts  --      1.3845                 0.8965                 1.1042
 IR Inten    --     55.0616                 0.1479                 2.1883

                     76                     77                     78
                      A                      A                      A
 Frequencies --   1196.4095              1203.0598              1207.2977
 Red. masses --      1.0962                 1.1354                 1.1657
 Frc consts  --      0.9245                 0.9682                 1.0011
 IR Inten    --      0.3038                 0.3947                 1.2391

                     79                     80                     81
                      A                      A                      A
 Frequencies --   1214.0097              1233.6760              1245.9175
 Red. masses --      1.6810                 2.4110                 2.4447
 Frc consts  --      1.4597                 2.1620                 2.2359
 IR Inten    --     90.9799                 1.0631                46.0957

                     82                     83                     84
                      A                      A                      A
 Frequencies --   1269.6189              1279.8783              1284.1018
 Red. masses --      5.7859                 3.7245                 2.5246
 Frc consts  --      5.4950                 3.5946                 2.4527
 IR Inten    --    348.4531               348.9457                51.6139

                     85                     86                     87
                      A                      A                      A
 Frequencies --   1312.5202              1342.7616              1344.7236
 Red. masses --      1.4771                 1.5149                 1.4617
 Frc consts  --      1.4992                 1.6092                 1.5573
 IR Inten    --      1.6442                34.2790                12.4032

                     88                     89                     90
                      A                      A                      A
 Frequencies --   1360.7245              1364.9319              1365.9163
 Red. masses --      3.1819                 2.3718                 1.8977
 Frc consts  --      3.4711                 2.6034                 2.0861
 IR Inten    --      0.5611                 5.2344                 9.2477

                     91                     92                     93
                      A                      A                      A
 Frequencies --   1400.7004              1449.2535              1459.4522
 Red. masses --      1.5286                 1.1115                 1.1678
 Frc consts  --      1.7670                 1.3754                 1.4656
 IR Inten    --      1.0087                40.8382                65.5138

                     94                     95                     96
                      A                      A                      A
 Frequencies --   1469.1223              1492.9419              1497.1215
 Red. masses --      1.1361                 2.1666                 2.1910
 Frc consts  --      1.4448                 2.8452                 2.8934
 IR Inten    --      8.2263                25.1334                 5.4819

                     97                     98                     99
                      A                      A                      A
 Frequencies --   1502.6285              1524.2517              1525.3192
 Red. masses --      1.0993                 1.9948                 1.1195
 Frc consts  --      1.4624                 2.7306                 1.5346
 IR Inten    --      4.3445                 2.4058                 7.7749

                    100                    101                    102
                      A                      A                      A
 Frequencies --   1543.8265              1641.5266              1643.6073
 Red. masses --      2.2538                 5.6031                 5.5275
 Frc consts  --      3.1650                 8.8955                 8.7978
 IR Inten    --     19.1111                 1.2490                 3.2755

                    103                    104                    105
                      A                      A                      A
 Frequencies --   1644.4927              1663.2718              3062.5489
 Red. masses --      5.7569                 5.7273                 1.0639
 Frc consts  --      9.1728                 9.3353                 5.8795
 IR Inten    --      0.8868                 9.8756                 2.5996

                    106                    107                    108
                      A                      A                      A
 Frequencies --   3071.1623              3109.5358              3127.7992
 Red. masses --      1.0628                 1.0985                 1.1022
 Frc consts  --      5.9061                 6.2581                 6.3533
 IR Inten    --     71.1556                 0.2060                52.8924

                    109                    110                    111
                      A                      A                      A
 Frequencies --   3144.1775              3148.1246              3189.2249
 Red. masses --      1.0568                 1.0580                 1.0872
 Frc consts  --      6.1555                 6.1776                 6.5151
 IR Inten    --      3.5508                 4.4073                17.2022

                    112                    113                    114
                      A                      A                      A
 Frequencies --   3191.9933              3202.0186              3210.7477
 Red. masses --      1.0868                 1.0898                 1.0939
 Frc consts  --      6.5243                 6.5832                 6.6440
 IR Inten    --     10.1592                17.1966                75.4503

                    115                    116                    117
                      A                      A                      A
 Frequencies --   3218.0700              3219.0101              3221.8570
 Red. masses --      1.0868                 1.1113                 1.0978
 Frc consts  --      6.6313                 6.7846                 6.7142
 IR Inten    --      1.6498                 1.7874                32.3348

                    118                    119                    120
                      A                      A                      A
 Frequencies --   3222.8334              3228.8395              3235.6417
 Red. masses --      1.1119                 1.0895                 1.0933
 Frc consts  --      6.8046                 6.6920                 6.7441
 IR Inten    --      3.9744                14.8530                22.1509

                    121                    122                    123
                      A                      A                      A
 Frequencies --   3243.9211              3250.6009              3494.4833
 Red. masses --      1.0952                 1.0939                 1.0761
 Frc consts  --      6.7903                 6.8100                 7.7425
 IR Inten    --      9.9348                 6.8222               167.9608

 - Thermochemistry -
 -------------------
 Temperature   298.150 Kelvin.  Pressure   1.00000 Atm.
 Atom     1 has atomic number  8 and mass  15.99491

 Molecular mass:   365.07555 amu.
 Principal axes and moments of inertia in atomic units:
                           1         2         3
     Eigenvalues --  6837.64915********************
           X            0.99999   0.00011  -0.00441
           Y            0.00005   0.99935   0.03605
           Z            0.00441  -0.03605   0.99934
 This molecule is an asymmetric top.
 Rotational symmetry number  1.
 Warning -- assumption of classical behavior for rotation
           may cause significant error
 Rotational temperatures (Kelvin)      0.01267     0.00630     0.00512
 Rotational constants (GHZ):           0.26394     0.13118     0.10667
    1 imaginary frequencies ignored.
 Zero-point vibrational energy     891516.3 (Joules/Mol)
                                  213.07751 (Kcal/Mol)
 Warning -- explicit consideration of  34 degrees of freedom as
           vibrations may cause significant error
 Vibrational temperatures:     21.24    28.71    37.71    44.85    64.48
          (Kelvin)             97.12   141.55   184.52   194.85   214.63
                              251.18   297.84   341.21   366.23   375.28
                              408.87   441.26   458.47   478.27   519.69
                              537.67   557.74   577.35   592.81   602.00
                              640.40   659.93   706.29   713.34   753.72
                              794.15   819.82   868.71   880.85   900.52
                              913.06  1002.91  1028.50  1029.48  1053.35
                             1082.13  1102.37  1105.00  1121.29  1168.54
                             1183.95  1203.64  1239.07  1245.82  1278.87
                             1307.14  1341.86  1366.08  1405.96  1420.99
                             1427.71  1440.81  1448.72  1459.63  1463.02
                             1469.47  1496.43  1503.28  1509.62  1517.88
                             1542.99  1554.36  1559.65  1595.72  1598.52
                             1622.08  1647.10  1701.78  1716.63  1721.37
                             1730.93  1737.03  1746.69  1774.98  1792.60
                             1826.70  1841.46  1847.54  1888.42  1931.93
                             1934.76  1957.78  1963.83  1965.25  2015.30
                             2085.15  2099.83  2113.74  2148.01  2154.02
                             2161.95  2193.06  2194.59  2221.22  2361.79
                             2364.78  2366.06  2393.08  4406.32  4418.72
                             4473.93  4500.21  4523.77  4529.45  4588.58
                             4592.57  4606.99  4619.55  4630.08  4631.44
                             4635.53  4636.94  4645.58  4655.37  4667.28
                             4676.89  5027.78

 Zero-point correction=                           0.339561 (Hartree/Particle)
 Thermal correction to Energy=                    0.360835
 Thermal correction to Enthalpy=                  0.361780
 Thermal correction to Gibbs Free Energy=         0.286099
 Sum of electronic and zero-point Energies=          -1810.812213
 Sum of electronic and thermal Energies=             -1810.790938
 Sum of electronic and thermal Enthalpies=           -1810.789994
 Sum of electronic and thermal Free Energies=        -1810.865675

                     E (Thermal)             CV                S
                      KCal/Mol        Cal/Mol-Kelvin    Cal/Mol-Kelvin
 Total                  226.428             83.627            159.284
 Electronic               0.000              0.000              0.000
 Translational            0.889              2.981             43.578
 Rotational               0.889              2.981             35.719
 Vibrational            224.650             77.666             79.987
 Vibration     1          0.593              1.986              7.237
 Vibration     2          0.593              1.986              6.639
 Vibration     3          0.593              1.985              6.097
 Vibration     4          0.594              1.983              5.753
 Vibration     5          0.595              1.979              5.034
 Vibration     6          0.598              1.970              4.225
 Vibration     7          0.604              1.950              3.486
 Vibration     8          0.611              1.925              2.972
 Vibration     9          0.613              1.918              2.867
 Vibration    10          0.618              1.904              2.683
 Vibration    11          0.627              1.874              2.386
 Vibration    12          0.641              1.830              2.070
 Vibration    13          0.656              1.784              1.824
 Vibration    14          0.665              1.755              1.699
 Vibration    15          0.669              1.744              1.656
 Vibration    16          0.683              1.703              1.508
 Vibration    17          0.697              1.661              1.380
 Vibration    18          0.705              1.638              1.317
 Vibration    19          0.714              1.611              1.248
 Vibration    20          0.735              1.552              1.117
 Vibration    21          0.745              1.526              1.065
 Vibration    22          0.756              1.497              1.009
 Vibration    23          0.767              1.467              0.958
 Vibration    24          0.776              1.444              0.919
 Vibration    25          0.781              1.430              0.897
 Vibration    26          0.804              1.372              0.811
 Vibration    27          0.817              1.342              0.770
 Vibration    28          0.847              1.270              0.681
 Vibration    29          0.851              1.259              0.669
 Vibration    30          0.879              1.197              0.601
 Vibration    31          0.907              1.135              0.540
 Vibration    32          0.926              1.097              0.505
 Vibration    33          0.962              1.024              0.443
 Vibration    34          0.971              1.006              0.429

 Optimization completed.
    -- Stationary point found.
 Normal termination of Gaussian 16 at Tue Sep 15 08:50:49 2020.

 ----------------------------------------------------------------------
 #p b3lyp/6-31G(d) scrf=(iefpcm,read,solvent=water) geom=allcheck guess
 =read
 ----------------------------------------------------------------------

 Structure from the checkpoint file:  "SM39_m0.n.14.pdb.xyz.mst.n.w.chk"
 --------------------
 SM39_m0.n.14.pdb.xyz
 --------------------
 Charge =  0 Multiplicity = 1

 SCF Done:  E(RB3LYP) =  -1811.15177108     A.U. after    5 cycles
 Normal termination of Gaussian 16 at Tue Sep 15 08:51:40 2020.

 -----------------------------
 #p B3LYP/6-31G* geom=allcheck
 -----------------------------

 Structure from the checkpoint file:  "SM39_m0.n.14.pdb.xyz.mst.n.w.chk"
 --------------------
 SM39_m0.n.14.pdb.xyz
 --------------------
 Charge =  0 Multiplicity = 1

 SCF Done:  E(RB3LYP) =  -1811.12072411     A.U. after   15 cycles
 Normal termination of Gaussian 16 at Tue Sep 15 08:53:04 2020.
 Gaussian 16:  ES64L-G16RevB.01 20-Dec-2017

 ----------------------------------------------------------------------
 #p mp2/aug-cc-pVDZ scf=(MaxCycle=2000,NoVarAcc,NoIncFock) maxdisk=180G
 B geom=allcheck
 ----------------------------------------------------------------------

 Structure from the checkpoint file:  "SM39_m0.n.14.pdb.xyz.mst.n.w.chk"
 --------------------
 SM39_m0.n.14.pdb.xyz
 --------------------
 Charge =  0 Multiplicity = 1

                         Standard orientation:
 ---------------------------------------------------------------------
 Center     Atomic      Atomic             Coordinates (Angstroms)
 Number     Number       Type             X           Y           Z
 ---------------------------------------------------------------------
      1          8           0        2.885440    0.971700    1.306085
      2         16           0        2.204205   -0.329288    1.436047
      3          7           0        0.546430   -0.170284    1.248973
      4          6           0       -0.092710    0.937865    0.531649
      5          6           0        0.474212    1.178496   -0.905374
      6         16           0        0.453204    2.977495   -0.600418
      7          6           0        0.187552    2.376279    1.095555
      8          8           0        1.751303    3.642258   -0.820792
      9          8           0       -0.760140    3.610834   -1.159025
     10          6           0       -1.604913    0.660361    0.511494
     11          6           0       -2.002566   -0.654927   -0.176997
     12          6           0       -3.499870   -0.868205   -0.168293
     13          6           0       -4.308100   -0.339577   -1.184012
     14          6           0       -5.693044   -0.511174   -1.160012
     15          6           0       -6.294093   -1.217466   -0.115690
     16          6           0       -5.499598   -1.750696    0.901345
     17          6           0       -4.115092   -1.576316    0.872415
     18          6           0        2.713785   -1.331000    0.048485
     19          6           0        2.053148   -2.532750   -0.220161
     20          6           0        2.514602   -3.330234   -1.264435
     21          6           0        3.622102   -2.929400   -2.018383
     22          6           0        4.274032   -1.729664   -1.732562
     23          6           0        3.823728   -0.920322   -0.689954
     24          8           0        2.367882   -1.101158    2.678324
     25          1           0        0.096734   -0.380894    2.143707
     26          1           0       -0.154788    0.857303   -1.733370
     27          1           0        1.501869    0.850224   -1.052020
     28          1           0       -0.631689    2.864472    1.621964
     29          1           0        1.123754    2.437293    1.647388
     30          1           0       -2.090501    1.504537    0.012413
     31          1           0       -1.963734    0.662481    1.547056
     32          1           0       -1.503447   -1.485517    0.329224
     33          1           0       -1.638680   -0.645454   -1.210413
     34          1           0       -3.846867    0.206543   -2.002457
     35          1           0       -6.301349   -0.097495   -1.958293
     36          1           0       -7.370498   -1.354430   -0.097062
     37          1           0       -5.956144   -2.305971    1.714722
     38          1           0       -3.501602   -1.998068    1.663577
     39          1           0        1.191942   -2.830622    0.365683
     40          1           0        2.009350   -4.262197   -1.491311
     41          1           0        3.974722   -3.554609   -2.831261
     42          1           0        5.132048   -1.420511   -2.318324
     43          1           0        4.310413    0.016887   -0.451261
 ---------------------------------------------------------------------

 SCF Done:  E(RHF) =  -1803.71580273     A.U. after   16 cycles
 E2 =    -0.3646029878D+01 EUMP2 =    -0.18073618326039D+04

 The electronic state is 1-A.
 Alpha  occ. eigenvalues --  -92.24430 -92.19828 -20.57594 -20.57334 -20.55783
 Alpha  occ. eigenvalues --  -20.55610 -15.63606 -11.34519 -11.30315 -11.29731
 Alpha  occ. eigenvalues --  -11.28970 -11.28872 -11.28565 -11.28291 -11.27784
 Alpha  occ. eigenvalues --  -11.27572 -11.26856 -11.26241 -11.26059 -11.25434
 Alpha  occ. eigenvalues --  -11.25368 -11.25194 -11.25089 -11.25036  -9.21229
 Alpha  occ. eigenvalues --   -9.17092  -6.89765  -6.89726  -6.89612  -6.85582
 Alpha  occ. eigenvalues --   -6.85492  -6.85426  -1.47442  -1.43915  -1.35264
 Alpha  occ. eigenvalues --   -1.32627  -1.27754  -1.19826  -1.17097  -1.15288
 Alpha  occ. eigenvalues --   -1.08843  -1.07394  -1.05836  -1.02722  -1.01897
 Alpha  occ. eigenvalues --   -0.98673  -0.94691  -0.91401  -0.87046  -0.85791
 Alpha  occ. eigenvalues --   -0.84109  -0.83235  -0.80964  -0.79009  -0.75705
 Alpha  occ. eigenvalues --   -0.72884  -0.71881  -0.71014  -0.69539  -0.68922
 Alpha  occ. eigenvalues --   -0.67260  -0.66708  -0.65995  -0.65222  -0.64973
 Alpha  occ. eigenvalues --   -0.64411  -0.62893  -0.62741  -0.62456  -0.61258
 Alpha  occ. eigenvalues --   -0.60622  -0.59627  -0.58910  -0.57969  -0.56166
 Alpha  occ. eigenvalues --   -0.55460  -0.55009  -0.54341  -0.53510  -0.52461
 Alpha  occ. eigenvalues --   -0.51241  -0.50824  -0.50084  -0.49746  -0.49614
 Alpha  occ. eigenvalues --   -0.48636  -0.48481  -0.47758  -0.47178  -0.46111
 Alpha  occ. eigenvalues --   -0.44917  -0.42044  -0.37970  -0.37317  -0.34768
 Alpha  occ. eigenvalues --   -0.33943
 Alpha virt. eigenvalues --    0.02125   0.02677   0.03425   0.03521   0.03982
 Alpha virt. eigenvalues --    0.04394   0.04809   0.05171   0.05866   0.05976
 Alpha virt. eigenvalues --    0.06477   0.06660   0.06715   0.07389   0.07571

 Mulliken charges:
               1
     1  O   -1.273952
     2  S    2.823470
     3  N   -1.181830
     4  C    0.602630
     5  C    0.166526
     6  S    2.953681
     7  C    0.291988
     8  O   -1.258394
     9  O   -1.279872
    10  C    0.381615
    11  C    0.811307
    12  C    1.191022
    13  C    0.489413
    14  C    0.049765
    15  C    0.664090
    16  C   -0.030464
    17  C    0.565269
    18  C    0.665948
    19  C    0.560355
    20  C    0.242399
    21  C    0.764215
    22  C    0.381513
    23  C    0.327046
    24  O   -1.182198
    25  H   -0.052516
    26  H   -0.285919
    27  H   -0.336864
    28  H   -0.337820
    29  H   -0.235064
    30  H   -0.168489
    31  H   -0.185434
    32  H   -0.326999
    33  H   -0.323406
    34  H   -0.673269
    35  H   -0.465757
    36  H   -0.434196
    37  H   -0.472598
    38  H   -0.668234
    39  H   -0.698406
    40  H   -0.500708
    41  H   -0.453325
    42  H   -0.460279
    43  H   -0.646260
 Sum of Mulliken charges =  -0.00000

 Dipole moment (field-independent basis, Debye):
    X=             -2.6713    Y=             -6.9465    Z=             -1.3723  Tot=              7.5679
 Quadrupole moment (field-independent basis, Debye-Ang):
   XX=           -153.7991   YY=           -178.8278   ZZ=           -158.4395
   XY=             -8.9585   XZ=            -19.4130   YZ=             16.7977

 Normal termination of Gaussian 16 at Tue Sep 15 12:03:41 2020.
