 Gaussian 16, Revision B.01,

 ----------------------------------------------------------------------
 #p b3lyp/6-31G(d) opt freq NoSymm scf=(MaxCycle=2000,NoVarAcc,NoIncFoc
 k) scrf=(iefpcm,read,solvent=water) MaxDisk=20GB
 ----------------------------------------------------------------------

 --------------------
 SM39_m0.n.12.pdb.xyz
 --------------------
 Symbolic Z-matrix:
 Charge =  0 Multiplicity = 1

 SCF Done:  E(RB3LYP) =  -1811.15232945     A.U. after   13 cycles
 SCF Done:  E(RB3LYP) =  -1811.15234654     A.U. after   10 cycles
 SCF Done:  E(RB3LYP) =  -1811.15243375     A.U. after    9 cycles
 SCF Done:  E(RB3LYP) =  -1811.15237645     A.U. after    9 cycles
 SCF Done:  E(RB3LYP) =  -1811.15240471     A.U. after    8 cycles
 SCF Done:  E(RB3LYP) =  -1811.15240144     A.U. after    8 cycles
 SCF Done:  E(RB3LYP) =  -1811.15239766     A.U. after    8 cycles
 SCF Done:  E(RB3LYP) =  -1811.15239585     A.U. after    7 cycles
 SCF Done:  E(RB3LYP) =  -1811.15238974     A.U. after    8 cycles
 SCF Done:  E(RB3LYP) =  -1811.15238043     A.U. after    9 cycles
 SCF Done:  E(RB3LYP) =  -1811.15238135     A.U. after    8 cycles
 SCF Done:  E(RB3LYP) =  -1811.15238136     A.U. after    7 cycles
 SCF Done:  E(RB3LYP) =  -1811.15238137     A.U. after    7 cycles
 Optimization completed.
    -- Stationary point found.
 Normal termination of Gaussian 16 at Tue Sep 15 07:34:07 2020.

 --------------------------------------------------------------------
 #P Geom=AllCheck Guess=TCheck SCRF=Check GenChk RB3LYP/6-31G(d) Freq
 --------------------------------------------------------------------

 Structure from the checkpoint file:  "SM39_m0.n.12.pdb.xyz.mst.n.w.chk"
 --------------------
 SM39_m0.n.12.pdb.xyz
 --------------------
 Charge =  0 Multiplicity = 1

 SCF Done:  E(RB3LYP) =  -1811.15238137     A.U. after    1 cycles

  Exact polarizability: 361.228  11.678 267.037 -17.258 -19.823 250.757
 Approx polarizability: 392.390  12.702 305.949 -28.373 -22.147 307.106

 ******    2 imaginary frequencies (negative Signs) ******

                      1                      2                      3
                      A                      A                      A
 Frequencies --    -21.3710                -5.7962                19.1981
 Red. masses --      3.7655                 4.9034                 6.1279
 Frc consts  --      0.0010                 0.0001                 0.0013
 IR Inten    --      0.0035                 1.9655                 0.4606

                      4                      5                      6
                      A                      A                      A
 Frequencies --     27.3690                32.2957                54.6779
 Red. masses --      5.6960                 7.7180                 5.2845
 Frc consts  --      0.0025                 0.0047                 0.0093
 IR Inten    --      1.1852                 5.4727                 4.9185

                      7                      8                      9
                      A                      A                      A
 Frequencies --     70.3177                84.3491               109.2624
 Red. masses --      5.2516                 4.4796                 7.0020
 Frc consts  --      0.0153                 0.0188                 0.0493
 IR Inten    --      4.3119                 0.0037                 5.9537

                     10                     11                     12
                      A                      A                      A
 Frequencies --    130.9041               148.4895               193.1561
 Red. masses --      5.0024                 6.0295                 5.6708
 Frc consts  --      0.0505                 0.0783                 0.1247
 IR Inten    --      1.1993                 2.7335                 1.2491

                     13                     14                     15
                      A                      A                      A
 Frequencies --    202.6747               232.4839               245.3006
 Red. masses --      4.9028                 5.1394                 4.8427
 Frc consts  --      0.1187                 0.1637                 0.1717
 IR Inten    --      2.6115                 9.7873                 3.1243

                     16                     17                     18
                      A                      A                      A
 Frequencies --    268.9393               279.2017               303.6530
 Red. masses --      5.8272                 3.4877                 5.5465
 Frc consts  --      0.2483                 0.1602                 0.3013
 IR Inten    --      0.1984                 1.0331                 8.7935

                     19                     20                     21
                      A                      A                      A
 Frequencies --    315.5670               320.8131               352.5114
 Red. masses --      4.0742                 3.0270                 3.3561
 Frc consts  --      0.2390                 0.1836                 0.2457
 IR Inten    --      4.6595                 0.7889                 9.0571

                     22                     23                     24
                      A                      A                      A
 Frequencies --    376.5076               386.6444               410.7471
 Red. masses --      3.1907                 4.8253                 3.0938
 Frc consts  --      0.2665                 0.4250                 0.3075
 IR Inten    --     12.8661                 5.6791                 5.8973

                     25                     26                     27
                      A                      A                      A
 Frequencies --    413.8132               417.9551               448.6332
 Red. masses --      3.4972                 2.9741                 5.8653
 Frc consts  --      0.3528                 0.3061                 0.6955
 IR Inten    --     31.7485                 0.1632                70.3063

                     28                     29                     30
                      A                      A                      A
 Frequencies --    472.3430               486.8721               519.3185
 Red. masses --      5.0722                 3.3841                 3.0484
 Frc consts  --      0.6667                 0.4726                 0.4844
 IR Inten    --      4.4596                 2.3469                10.7487

                     31                     32                     33
                      A                      A                      A
 Frequencies --    525.3409               551.9131               567.8455
 Red. masses --      1.9449                 7.4395                 8.0200
 Frc consts  --      0.3162                 1.3352                 1.5236
 IR Inten    --     85.5589               121.4339               219.9073

                     34                     35                     36
                      A                      A                      A
 Frequencies --    607.8808               618.1527               625.7380
 Red. masses --      3.6874                 5.4250                 6.4131
 Frc consts  --      0.8028                 1.2214                 1.4795
 IR Inten    --     95.3523                64.9224                 0.3908

                     37                     38                     39
                      A                      A                      A
 Frequencies --    634.9070               696.6524               715.5067
 Red. masses --      6.3178                 2.4182                 2.0881
 Frc consts  --      1.5005                 0.6915                 0.6298
 IR Inten    --      0.5022                42.9659                27.4247

                     40                     41                     42
                      A                      A                      A
 Frequencies --    717.6448               738.5649               763.5385
 Red. masses --      5.9535                 2.0296                 4.7309
 Frc consts  --      1.8065                 0.6523                 1.6250
 IR Inten    --     22.7705                27.7373                87.8647

                     43                     44                     45
                      A                      A                      A
 Frequencies --    766.0207               766.4598               790.7963
 Red. masses --      1.6627                 1.7020                 1.4945
 Frc consts  --      0.5748                 0.5891                 0.5507
 IR Inten    --     47.9643                24.6475                29.8244

                     46                     47                     48
                      A                      A                      A
 Frequencies --    811.2277               819.8418               850.8790
 Red. masses --      4.0005                 2.0263                 2.6778
 Frc consts  --      1.5511                 0.8024                 1.1422
 IR Inten    --      6.2505                61.8428                12.1721

                     49                     50                     51
                      A                      A                      A
 Frequencies --    856.3146               866.3439               871.1676
 Red. masses --      1.2501                 1.3468                 2.4868
 Frc consts  --      0.5401                 0.5956                 1.1120
 IR Inten    --      0.3006                20.6073               123.7411

                     52                     53                     54
                      A                      A                      A
 Frequencies --    910.7621               933.7826               946.1291
 Red. masses --      2.2921                 1.4810                 1.3113
 Frc consts  --      1.1202                 0.7608                 0.6916
 IR Inten    --     55.5712                 6.1289                 1.4394

                     55                     56                     57
                      A                      A                      A
 Frequencies --    978.0766               982.4020               987.6313
 Red. masses --      1.4070                 2.3779                 1.3560
 Frc consts  --      0.7930                 1.3522                 0.7793
 IR Inten    --      7.8783                90.2741                 0.4454

                     58                     59                     60
                      A                      A                      A
 Frequencies --   1003.2312              1011.0343              1014.4646
 Red. masses --      1.2827                 1.9014                 6.0837
 Frc consts  --      0.7606                 1.1451                 3.6889
 IR Inten    --      0.6421                13.8784                 7.4175

                     61                     62                     63
                      A                      A                      A
 Frequencies --   1016.8203              1019.9337              1045.5955
 Red. masses --      6.0554                 1.2832                 1.5583
 Frc consts  --      3.6888                 0.7865                 1.0038
 IR Inten    --      0.0867                 0.0184                13.0589

                     64                     65                     66
                      A                      A                      A
 Frequencies --   1048.4916              1053.0568              1055.4850
 Red. masses --      3.1093                 1.6796                 2.0558
 Frc consts  --      2.0139                 1.0974                 1.3494
 IR Inten    --     27.1111                 1.3114                11.0940

                     67                     68                     69
                      A                      A                      A
 Frequencies --   1071.3727              1079.9148              1090.0250
 Red. masses --      2.2310                 2.9551                 3.3037
 Frc consts  --      1.5088                 2.0305                 2.3127
 IR Inten    --    248.1035                68.9959               109.2624

                     70                     71                     72
                      A                      A                      A
 Frequencies --   1113.2218              1116.1329              1127.7224
 Red. masses --      1.6063                 2.1923                 4.4602
 Frc consts  --      1.1728                 1.6091                 3.3420
 IR Inten    --     12.6459                15.2833               210.6914

                     73                     74                     75
                      A                      A                      A
 Frequencies --   1143.9496              1183.0422              1189.8422
 Red. masses --      2.4270                 1.0874                 1.0896
 Frc consts  --      1.8712                 0.8966                 0.9089
 IR Inten    --     45.7379                 0.1614                 0.1390

                     76                     77                     78
                      A                      A                      A
 Frequencies --   1192.0954              1203.1330              1208.2288
 Red. masses --      1.3160                 1.1320                 1.1569
 Frc consts  --      1.1019                 0.9654                 0.9950
 IR Inten    --      9.0888                 0.4502                 0.9390

                     79                     80                     81
                      A                      A                      A
 Frequencies --   1218.1481              1237.2165              1258.5841
 Red. masses --      1.4723                 2.6416                 2.6855
 Frc consts  --      1.2872                 2.3824                 2.5063
 IR Inten    --     17.8772                10.1229               212.3098

                     82                     83                     84
                      A                      A                      A
 Frequencies --   1268.4362              1276.2406              1281.4292
 Red. masses --      2.0785                 9.8912                 3.8528
 Frc consts  --      1.9704                 9.4921                 3.7275
 IR Inten    --    225.6055               303.7872               137.5229

                     85                     86                     87
                      A                      A                      A
 Frequencies --   1324.6003              1345.4268              1346.1597
 Red. masses --      1.4226                 1.4728                 1.5167
 Frc consts  --      1.4706                 1.5708                 1.6194
 IR Inten    --     16.0526                12.2915                 4.6581

                     88                     89                     90
                      A                      A                      A
 Frequencies --   1360.5239              1365.3551              1370.4057
 Red. masses --      2.4779                 4.4046                 1.4077
 Frc consts  --      2.7024                 4.8378                 1.5576
 IR Inten    --      0.0030                 4.1555                 6.9064

                     91                     92                     93
                      A                      A                      A
 Frequencies --   1405.0432              1443.9476              1454.0518
 Red. masses --      1.4518                 1.2418                 1.1185
 Frc consts  --      1.6886                 1.5254                 1.3933
 IR Inten    --      6.1722                62.8513                30.5522

                     94                     95                     96
                      A                      A                      A
 Frequencies --   1468.7470              1492.1034              1497.5697
 Red. masses --      1.1024                 2.1816                 2.1024
 Frc consts  --      1.4011                 2.8616                 2.7780
 IR Inten    --      3.8099                24.1068                 6.7642

                     97                     98                     99
                      A                      A                      A
 Frequencies --   1507.8109              1524.1235              1525.3249
 Red. masses --      1.1015                 1.1057                 2.0499
 Frc consts  --      1.4755                 1.5133                 2.8100
 IR Inten    --      4.1997                 4.4423                 4.3568

                    100                    101                    102
                      A                      A                      A
 Frequencies --   1543.7999              1641.9768              1643.3620
 Red. masses --      2.2410                 5.5833                 5.6154
 Frc consts  --      3.1469                 8.8691                 8.9351
 IR Inten    --     21.0053                 1.2229                 2.1136

                    103                    104                    105
                      A                      A                      A
 Frequencies --   1645.6424              1662.7994              3062.5078
 Red. masses --      5.7153                 5.7207                 1.0601
 Frc consts  --      9.1192                 9.3193                 5.8579
 IR Inten    --      0.7431                10.1787                39.8820

                    106                    107                    108
                      A                      A                      A
 Frequencies --   3078.6329              3106.7002              3141.9047
 Red. masses --      1.0663                 1.0999                 1.0984
 Frc consts  --      5.9542                 6.2547                 6.3884
 IR Inten    --     27.1787                37.6213                19.5142

                    109                    110                    111
                      A                      A                      A
 Frequencies --   3144.0833              3146.1026              3189.3932
 Red. masses --      1.0571                 1.0592                 1.0870
 Frc consts  --      6.1566                 6.1769                 6.5148
 IR Inten    --      0.3188                 3.7400                15.7748

                    112                    113                    114
                      A                      A                      A
 Frequencies --   3191.9113              3201.5233              3211.7541
 Red. masses --      1.0872                 1.0896                 1.0937
 Frc consts  --      6.5263                 6.5800                 6.6469
 IR Inten    --     13.1105                17.8690                71.9975

                    115                    116                    117
                      A                      A                      A
 Frequencies --   3214.6902              3219.3876              3220.7112
 Red. masses --      1.0869                 1.1123                 1.1114
 Frc consts  --      6.6181                 6.7926                 6.7927
 IR Inten    --      1.9274                 0.5011                 0.8478

                    118                    119                    120
                      A                      A                      A
 Frequencies --   3222.0203              3226.1239              3232.9966
 Red. masses --      1.0978                 1.0895                 1.0935
 Frc consts  --      6.7149                 6.6809                 6.7342
 IR Inten    --     30.8806                14.7522                24.7555

                    121                    122                    123
                      A                      A                      A
 Frequencies --   3241.7494              3254.3213              3512.4128
 Red. masses --      1.0954                 1.0931                 1.0762
 Frc consts  --      6.7822                 6.8207                 7.8223
 IR Inten    --     11.2949                 5.1935               152.5532

 - Thermochemistry -
 -------------------
 Temperature   298.150 Kelvin.  Pressure   1.00000 Atm.
 Atom     1 has atomic number  8 and mass  15.99491

 Molecular mass:   365.07555 amu.
 Principal axes and moments of inertia in atomic units:
                           1         2         3
     Eigenvalues --  5627.36397********************
           X            1.00000  -0.00267   0.00074
           Y            0.00267   1.00000   0.00129
           Z           -0.00075  -0.00129   1.00000
 This molecule is an asymmetric top.
 Rotational symmetry number  1.
 Warning -- assumption of classical behavior for rotation
           may cause significant error
 Rotational temperatures (Kelvin)      0.01539     0.00584     0.00461
 Rotational constants (GHZ):           0.32071     0.12164     0.09612
    2 imaginary frequencies ignored.
 Zero-point vibrational energy     892055.7 (Joules/Mol)
                                  213.20643 (Kcal/Mol)
 Warning -- explicit consideration of  33 degrees of freedom as
           vibrations may cause significant error
 Vibrational temperatures:     27.62    39.38    46.47    78.67   101.17
          (Kelvin)            121.36   157.20   188.34   213.64   277.91
                              291.60   334.49   352.93   386.94   401.71
                              436.89   454.03   461.58   507.19   541.71
                              556.30   590.97   595.38   601.34   645.48
                              679.60   700.50   747.18   755.85   794.08
                              817.00   874.60   889.38   900.30   913.49
                             1002.33  1029.45  1032.53  1062.63  1098.56
                             1102.13  1102.76  1137.78  1167.18  1179.57
                             1224.23  1232.05  1246.48  1253.42  1310.38
                             1343.50  1361.27  1407.23  1413.46  1420.98
                             1443.43  1454.65  1459.59  1462.98  1467.46
                             1504.38  1508.55  1515.11  1518.61  1541.47
                             1553.76  1568.30  1601.68  1605.87  1622.54
                             1645.89  1702.13  1711.92  1715.16  1731.04
                             1738.37  1752.64  1780.08  1810.82  1825.00
                             1836.23  1843.69  1905.80  1935.77  1936.82
                             1957.49  1964.44  1971.71  2021.54  2077.52
                             2092.06  2113.20  2146.80  2154.67  2169.40
                             2192.87  2194.60  2221.18  2362.44  2364.43
                             2367.71  2392.40  4406.27  4429.47  4469.85
                             4520.50  4523.63  4526.54  4588.83  4592.45
                             4606.28  4621.00  4625.22  4631.98  4633.89
                             4635.77  4641.67  4651.56  4664.15  4682.24
                             5053.58

 Zero-point correction=                           0.339766 (Hartree/Particle)
 Thermal correction to Energy=                    0.360138
 Thermal correction to Enthalpy=                  0.361082
 Thermal correction to Gibbs Free Energy=         0.288848
 Sum of electronic and zero-point Energies=          -1810.812615
 Sum of electronic and thermal Energies=             -1810.792244
 Sum of electronic and thermal Enthalpies=           -1810.791299
 Sum of electronic and thermal Free Energies=        -1810.863534

                     E (Thermal)             CV                S
                      KCal/Mol        Cal/Mol-Kelvin    Cal/Mol-Kelvin
 Total                  225.990             81.522            152.030
 Electronic               0.000              0.000              0.000
 Translational            0.889              2.981             43.578
 Rotational               0.889              2.981             35.704
 Vibrational            224.212             75.561             72.748
 Vibration     1          0.593              1.986              6.715
 Vibration     2          0.593              1.984              6.012
 Vibration     3          0.594              1.983              5.683
 Vibration     4          0.596              1.976              4.641
 Vibration     5          0.598              1.968              4.144
 Vibration     6          0.601              1.960              3.787
 Vibration     7          0.606              1.942              3.282
 Vibration     8          0.612              1.922              2.933
 Vibration     9          0.618              1.904              2.691
 Vibration    10          0.635              1.849              2.197
 Vibration    11          0.639              1.836              2.109
 Vibration    12          0.653              1.791              1.860
 Vibration    13          0.660              1.771              1.764
 Vibration    14          0.673              1.730              1.603
 Vibration    15          0.680              1.712              1.539
 Vibration    16          0.695              1.667              1.397
 Vibration    17          0.703              1.644              1.333
 Vibration    18          0.706              1.634              1.306
 Vibration    19          0.729              1.570              1.155
 Vibration    20          0.747              1.520              1.053
 Vibration    21          0.755              1.499              1.013
 Vibration    22          0.775              1.447              0.924
 Vibration    23          0.777              1.440              0.913
 Vibration    24          0.781              1.431              0.899
 Vibration    25          0.808              1.364              0.800
 Vibration    26          0.829              1.311              0.731
 Vibration    27          0.843              1.279              0.692
 Vibration    28          0.874              1.207              0.612
 Vibration    29          0.880              1.194              0.598
 Vibration    30          0.907              1.135              0.540
 Vibration    31          0.924              1.101              0.508
 Vibration    32          0.967              1.015              0.436
 Vibration    33          0.978              0.994              0.419

                           ! Non-Optimized Parameters !
 Normal termination of Gaussian 16 at Tue Sep 15 07:57:36 2020.

 ----------------------------------------------------------------------
 #p b3lyp/6-31G(d) scrf=(iefpcm,read,solvent=water) geom=allcheck guess
 =read
 ----------------------------------------------------------------------

 Structure from the checkpoint file:  "SM39_m0.n.12.pdb.xyz.mst.n.w.chk"
 --------------------
 SM39_m0.n.12.pdb.xyz
 --------------------
 Charge =  0 Multiplicity = 1

 SCF Done:  E(RB3LYP) =  -1811.15238639     A.U. after    5 cycles
 Normal termination of Gaussian 16 at Tue Sep 15 07:58:26 2020.

 -----------------------------
 #p B3LYP/6-31G* geom=allcheck
 -----------------------------

 Structure from the checkpoint file:  "SM39_m0.n.12.pdb.xyz.mst.n.w.chk"
 --------------------
 SM39_m0.n.12.pdb.xyz
 --------------------
 Charge =  0 Multiplicity = 1

 SCF Done:  E(RB3LYP) =  -1811.12279060     A.U. after   15 cycles
 Normal termination of Gaussian 16 at Tue Sep 15 07:59:43 2020.
 Gaussian 16:  ES64L-G16RevB.01 20-Dec-2017

 ----------------------------------------------------------------------
 #p mp2/aug-cc-pVDZ scf=(MaxCycle=2000,NoVarAcc,NoIncFock) maxdisk=180G
 B geom=allcheck
 ----------------------------------------------------------------------

 Structure from the checkpoint file:  "SM39_m0.n.12.pdb.xyz.mst.n.w.chk"
 --------------------
 SM39_m0.n.12.pdb.xyz
 --------------------
 Charge =  0 Multiplicity = 1

                         Standard orientation:
 ---------------------------------------------------------------------
 Center     Atomic      Atomic             Coordinates (Angstroms)
 Number     Number       Type             X           Y           Z
 ---------------------------------------------------------------------
      1          8           0        0.699643   -1.740407    1.147987
      2         16           0        1.300503   -1.620672   -0.191013
      3          7           0        0.680015   -0.282150   -0.993913
      4          6           0       -0.100943    0.757641   -0.303256
      5          6           0       -0.165916    2.019071   -1.234358
      6         16           0        0.409493    3.066306    0.142160
      7          6           0        0.706956    1.419539    0.862789
      8          8           0        1.636123    3.831102   -0.149713
      9          8           0       -0.710255    3.762909    0.807898
     10          6           0       -1.496750    0.313308    0.174834
     11          6           0       -2.433691   -0.185005   -0.938249
     12          6           0       -3.795409   -0.563952   -0.398762
     13          6           0       -4.827409    0.380376   -0.320348
     14          6           0       -6.074642    0.036887    0.204429
     15          6           0       -6.309502   -1.261783    0.660699
     16          6           0       -5.289241   -2.212782    0.586962
     17          6           0       -4.044354   -1.864164    0.061208
     18          6           0        3.033470   -1.236811    0.036246
     19          6           0        3.830375   -0.968654   -1.080323
     20          6           0        5.187530   -0.722244   -0.890994
     21          6           0        5.733910   -0.749739    0.396128
     22          6           0        4.925773   -1.023822    1.499244
     23          6           0        3.564033   -1.272574    1.324953
     24          8           0        1.190671   -2.735546   -1.146065
     25          1           0        0.275423   -0.581907   -1.883129
     26          1           0       -1.147087    2.292070   -1.618476
     27          1           0        0.582266    2.001907   -2.025789
     28          1           0        0.296257    1.298175    1.863640
     29          1           0        1.773814    1.201096    0.847426
     30          1           0       -1.964028    1.164602    0.681829
     31          1           0       -1.359236   -0.470842    0.923310
     32          1           0       -1.989187   -1.054728   -1.431847
     33          1           0       -2.545620    0.594719   -1.700048
     34          1           0       -4.653081    1.391410   -0.678398
     35          1           0       -6.862730    0.781885    0.252379
     36          1           0       -7.279340   -1.531682    1.066039
     37          1           0       -5.463362   -3.226408    0.934092
     38          1           0       -3.255889   -2.609249    0.001659
     39          1           0        3.399204   -0.945503   -2.074233
     40          1           0        5.817771   -0.508157   -1.746644
     41          1           0        6.791736   -0.555909    0.536213
     42          1           0        5.350467   -1.045529    2.496384
     43          1           0        2.917969   -1.487266    2.166565
 ---------------------------------------------------------------------

 SCF Done:  E(RHF) =  -1803.71823218     A.U. after   16 cycles
 E2 =    -0.3643749644D+01 EUMP2 =    -0.18073619818218D+04

 The electronic state is 1-A.
 Alpha  occ. eigenvalues --  -92.24564 -92.20476 -20.57909 -20.57531 -20.56470
 Alpha  occ. eigenvalues --  -20.56324 -15.63467 -11.34528 -11.30185 -11.30178
 Alpha  occ. eigenvalues --  -11.29839 -11.28727 -11.28471 -11.28058 -11.27542
 Alpha  occ. eigenvalues --  -11.27422 -11.25673 -11.25540 -11.25415 -11.24683
 Alpha  occ. eigenvalues --  -11.24630 -11.24450 -11.24346 -11.24313  -9.21338
 Alpha  occ. eigenvalues --   -9.17737  -6.89884  -6.89837  -6.89712  -6.86228
 Alpha  occ. eigenvalues --   -6.86133  -6.86065  -1.47569  -1.44617  -1.35552
 Alpha  occ. eigenvalues --   -1.33358  -1.27559  -1.19628  -1.16411  -1.15278
 Alpha  occ. eigenvalues --   -1.08239  -1.07132  -1.05645  -1.01967  -1.01053
 Alpha  occ. eigenvalues --   -0.99242  -0.94492  -0.91168  -0.86911  -0.85940
 Alpha  occ. eigenvalues --   -0.83364  -0.82805  -0.80376  -0.78931  -0.75703
 Alpha  occ. eigenvalues --   -0.73286  -0.71700  -0.70439  -0.69614  -0.69033
 Alpha  occ. eigenvalues --   -0.67238  -0.66831  -0.65780  -0.65122  -0.64661
 Alpha  occ. eigenvalues --   -0.64328  -0.63003  -0.62749  -0.62656  -0.61945
 Alpha  occ. eigenvalues --   -0.60043  -0.58938  -0.58488  -0.56811  -0.56081
 Alpha  occ. eigenvalues --   -0.55671  -0.54631  -0.53380  -0.52903  -0.52774
 Alpha  occ. eigenvalues --   -0.51787  -0.50561  -0.49553  -0.49310  -0.49124
 Alpha  occ. eigenvalues --   -0.49060  -0.48908  -0.48291  -0.47332  -0.46721
 Alpha  occ. eigenvalues --   -0.43891  -0.43276  -0.37739  -0.37098  -0.33998
 Alpha  occ. eigenvalues --   -0.33227
 Alpha virt. eigenvalues --    0.02399   0.02938   0.03423   0.03780   0.04217
 Alpha virt. eigenvalues --    0.04561   0.05104   0.05293   0.05845   0.06145
 Alpha virt. eigenvalues --    0.06253   0.06726   0.07039   0.07525   0.07811

 Mulliken charges:
               1
     1  O   -1.262437
     2  S    2.849583
     3  N   -0.904963
     4  C   -0.415143
     5  C    0.617107
     6  S    2.936751
     7  C    0.766156
     8  O   -1.247523
     9  O   -1.269972
    10  C   -0.023884
    11  C    1.033992
    12  C    1.037947
    13  C    0.510267
    14  C    0.077222
    15  C    0.675275
    16  C    0.010025
    17  C    0.512496
    18  C    0.714053
    19  C    0.344014
    20  C    0.358180
    21  C    0.685780
    22  C    0.369567
    23  C    0.392457
    24  O   -1.177243
    25  H   -0.061780
    26  H   -0.228917
    27  H   -0.293294
    28  H   -0.332983
    29  H   -0.224700
    30  H   -0.162562
    31  H   -0.224804
    32  H   -0.344353
    33  H   -0.315970
    34  H   -0.675185
    35  H   -0.468055
    36  H   -0.436948
    37  H   -0.474559
    38  H   -0.664807
    39  H   -0.684120
    40  H   -0.473174
    41  H   -0.439707
    42  H   -0.458306
    43  H   -0.625481
 Sum of Mulliken charges =  -0.00000

 Dipole moment (field-independent basis, Debye):
    X=              2.2368    Y=             -2.0861    Z=             -1.8116  Tot=              3.5549
 Quadrupole moment (field-independent basis, Debye-Ang):
   XX=           -129.0723   YY=           -198.9866   ZZ=           -150.4510
   XY=             -4.4164   XZ=              3.2505   YZ=            -10.2356

 Normal termination of Gaussian 16 at Tue Sep 15 11:53:31 2020.
