 Gaussian 16, Revision B.01,

 ----------------------------------------------------------------------
 #p b3lyp/6-31G(d) opt freq NoSymm scf=(MaxCycle=2000,NoVarAcc,NoIncFoc
 k) scrf=(iefpcm,read,solvent=water) MaxDisk=20GB
 ----------------------------------------------------------------------

 --------------------
 SM39_m0.n.11.pdb.xyz
 --------------------
 Symbolic Z-matrix:
 Charge =  0 Multiplicity = 1

 SCF Done:  E(RB3LYP) =  -1811.15229714     A.U. after   13 cycles
 SCF Done:  E(RB3LYP) =  -1811.15235145     A.U. after   10 cycles
 SCF Done:  E(RB3LYP) =  -1811.15239796     A.U. after    9 cycles
 SCF Done:  E(RB3LYP) =  -1811.15235074     A.U. after    9 cycles
 SCF Done:  E(RB3LYP) =  -1811.15238298     A.U. after    8 cycles
 SCF Done:  E(RB3LYP) =  -1811.15239774     A.U. after    9 cycles
 SCF Done:  E(RB3LYP) =  -1811.15239769     A.U. after    5 cycles
 SCF Done:  E(RB3LYP) =  -1811.15239559     A.U. after    8 cycles
 SCF Done:  E(RB3LYP) =  -1811.15239788     A.U. after    8 cycles
 SCF Done:  E(RB3LYP) =  -1811.15237926     A.U. after    9 cycles
 SCF Done:  E(RB3LYP) =  -1811.15239661     A.U. after   10 cycles
 SCF Done:  E(RB3LYP) =  -1811.15237027     A.U. after   10 cycles
 SCF Done:  E(RB3LYP) =  -1811.15239527     A.U. after   10 cycles
 SCF Done:  E(RB3LYP) =  -1811.15238418     A.U. after   10 cycles
 SCF Done:  E(RB3LYP) =  -1811.15239514     A.U. after   10 cycles
 SCF Done:  E(RB3LYP) =  -1811.15239507     A.U. after    6 cycles
 Optimization completed.
    -- Stationary point found.
 Normal termination of Gaussian 16 at Tue Sep 15 07:54:37 2020.

 --------------------------------------------------------------------
 #P Geom=AllCheck Guess=TCheck SCRF=Check GenChk RB3LYP/6-31G(d) Freq
 --------------------------------------------------------------------

 Structure from the checkpoint file:  "SM39_m0.n.11.pdb.xyz.mst.n.w.chk"
 --------------------
 SM39_m0.n.11.pdb.xyz
 --------------------
 Charge =  0 Multiplicity = 1

 SCF Done:  E(RB3LYP) =  -1811.15239507     A.U. after    1 cycles

  Exact polarizability: 362.086  10.970 266.072 -17.526 -17.070 250.872
 Approx polarizability: 393.342  11.893 304.774 -28.270 -18.620 307.270

 ******    2 imaginary frequencies (negative Signs) ******

                      1                      2                      3
                      A                      A                      A
 Frequencies --    -23.4894               -13.4933                19.1091
 Red. masses --      3.7629                 4.6600                 6.1270
 Frc consts  --      0.0012                 0.0005                 0.0013
 IR Inten    --      0.0029                 1.5958                 0.4712

                      4                      5                      6
                      A                      A                      A
 Frequencies --     24.1802                32.0727                53.6627
 Red. masses --      5.5256                 8.6541                 5.2168
 Frc consts  --      0.0019                 0.0052                 0.0089
 IR Inten    --      1.2032                 4.6862                 5.4141

                      7                      8                      9
                      A                      A                      A
 Frequencies --     69.3863                81.7686               106.2113
 Red. masses --      5.3648                 4.5255                 6.7510
 Frc consts  --      0.0152                 0.0178                 0.0449
 IR Inten    --      5.0396                 0.0023                 5.6995

                     10                     11                     12
                      A                      A                      A
 Frequencies --    130.1225               148.6307               192.4778
 Red. masses --      5.0886                 5.9994                 5.9286
 Frc consts  --      0.0508                 0.0781                 0.1294
 IR Inten    --      1.0931                 3.0036                 1.1619

                     13                     14                     15
                      A                      A                      A
 Frequencies --    199.4663               231.5729               245.2610
 Red. masses --      4.8243                 5.1562                 4.9359
 Frc consts  --      0.1131                 0.1629                 0.1749
 IR Inten    --      2.9960                 9.0303                 3.4945

                     16                     17                     18
                      A                      A                      A
 Frequencies --    267.6563               279.8782               303.5579
 Red. masses --      5.6961                 3.6427                 5.3026
 Frc consts  --      0.2404                 0.1681                 0.2879
 IR Inten    --      0.2348                 0.9245                 8.7334

                     19                     20                     21
                      A                      A                      A
 Frequencies --    314.2132               320.5834               351.7917
 Red. masses --      3.8209                 3.2580                 3.4680
 Frc consts  --      0.2223                 0.1973                 0.2529
 IR Inten    --      5.1804                 0.8978                10.4378

                     22                     23                     24
                      A                      A                      A
 Frequencies --    377.0239               388.0636               409.9250
 Red. masses --      3.0405                 4.6517                 3.2176
 Frc consts  --      0.2546                 0.4127                 0.3186
 IR Inten    --     12.0085                 4.7333                12.8014

                     25                     26                     27
                      A                      A                      A
 Frequencies --    412.1075               417.8090               447.8631
 Red. masses --      3.3750                 2.9771                 5.8766
 Frc consts  --      0.3377                 0.3062                 0.6945
 IR Inten    --     26.5569                 0.1060                72.0223

                     28                     29                     30
                      A                      A                      A
 Frequencies --    470.8367               486.1704               518.6302
 Red. masses --      4.9557                 3.3525                 3.0435
 Frc consts  --      0.6473                 0.4669                 0.4823
 IR Inten    --      5.3945                 2.3612                12.6816

                     31                     32                     33
                      A                      A                      A
 Frequencies --    521.8508               550.3469               567.9437
 Red. masses --      1.9548                 7.6168                 8.1782
 Frc consts  --      0.3137                 1.3592                 1.5542
 IR Inten    --     79.2097               126.9257               213.7397

                     34                     35                     36
                      A                      A                      A
 Frequencies --    607.8925               618.1855               625.6923
 Red. masses --      3.7431                 5.4295                 6.4158
 Frc consts  --      0.8150                 1.2225                 1.4799
 IR Inten    --     91.8725                69.9941                 0.3550

                     37                     38                     39
                      A                      A                      A
 Frequencies --    634.8861               696.6114               715.4232
 Red. masses --      6.3171                 2.4667                 2.0948
 Frc consts  --      1.5002                 0.7052                 0.6317
 IR Inten    --      0.4731                41.7823                28.9975

                     40                     41                     42
                      A                      A                      A
 Frequencies --    718.3840               738.1052               762.3959
 Red. masses --      6.0128                 2.0221                 4.7520
 Frc consts  --      1.8283                 0.6491                 1.6274
 IR Inten    --     21.9448                28.4931                88.3093

                     43                     44                     45
                      A                      A                      A
 Frequencies --    765.2052               765.8926               790.7657
 Red. masses --      1.6283                 1.7109                 1.4914
 Frc consts  --      0.5618                 0.5913                 0.5495
 IR Inten    --     49.8925                21.7638                29.9123

                     46                     47                     48
                      A                      A                      A
 Frequencies --    810.6371               819.6926               851.0698
 Red. masses --      4.0123                 2.0374                 2.6306
 Frc consts  --      1.5534                 0.8065                 1.1226
 IR Inten    --      3.2572                68.5889                11.1433

                     49                     50                     51
                      A                      A                      A
 Frequencies --    856.6145               866.5054               871.0089
 Red. masses --      1.2486                 1.3731                 2.4038
 Frc consts  --      0.5398                 0.6074                 1.0745
 IR Inten    --      0.3397                25.6429               121.6997

                     52                     53                     54
                      A                      A                      A
 Frequencies --    911.2705               933.7204               946.9176
 Red. masses --      2.2759                 1.4830                 1.3097
 Frc consts  --      1.1135                 0.7618                 0.6919
 IR Inten    --     52.1631                 6.2409                 1.4025

                     55                     56                     57
                      A                      A                      A
 Frequencies --    978.2184               982.6124               988.3587
 Red. masses --      1.4090                 2.3710                 1.3539
 Frc consts  --      0.7944                 1.3488                 0.7792
 IR Inten    --      8.2592                90.2160                 0.6398

                     58                     59                     60
                      A                      A                      A
 Frequencies --   1002.8739              1010.1501              1014.5400
 Red. masses --      1.2876                 1.8486                 6.2107
 Frc consts  --      0.7630                 1.1114                 3.7664
 IR Inten    --      0.7306                13.0921                 7.9639

                     61                     62                     63
                      A                      A                      A
 Frequencies --   1016.8124              1019.3183              1045.6735
 Red. masses --      6.1047                 1.2810                 1.5428
 Frc consts  --      3.7187                 0.7842                 0.9939
 IR Inten    --      0.1002                 0.0180                12.7993

                     64                     65                     66
                      A                      A                      A
 Frequencies --   1048.7740              1052.7850              1055.3561
 Red. masses --      3.1358                 1.7152                 2.0869
 Frc consts  --      2.0322                 1.1201                 1.3694
 IR Inten    --     26.7776                 1.2774                10.2517

                     67                     68                     69
                      A                      A                      A
 Frequencies --   1071.2691              1079.9737              1090.2630
 Red. masses --      2.1443                 3.0485                 3.3093
 Frc consts  --      1.4499                 2.0949                 2.3176
 IR Inten    --    234.9084                81.8641               110.9364

                     70                     71                     72
                      A                      A                      A
 Frequencies --   1113.0559              1116.3834              1128.3315
 Red. masses --      1.6065                 2.1754                 4.3494
 Frc consts  --      1.1727                 1.5974                 3.2625
 IR Inten    --     14.6500                12.5862               206.8600

                     73                     74                     75
                      A                      A                      A
 Frequencies --   1143.7387              1182.4715              1189.3862
 Red. masses --      2.4446                 1.0867                 1.0922
 Frc consts  --      1.8842                 0.8953                 0.9103
 IR Inten    --     47.0725                 0.1672                 0.4763

                     76                     77                     78
                      A                      A                      A
 Frequencies --   1192.0817              1202.9412              1209.4570
 Red. masses --      1.3162                 1.1320                 1.1537
 Frc consts  --      1.1020                 0.9651                 0.9944
 IR Inten    --      9.0816                 0.4563                 0.8117

                     79                     80                     81
                      A                      A                      A
 Frequencies --   1217.8935              1236.7203              1258.5442
 Red. masses --      1.4726                 2.6248                 2.6290
 Frc consts  --      1.2870                 2.3653                 2.4535
 IR Inten    --     15.8699                10.2038               204.5485

                     82                     83                     84
                      A                      A                      A
 Frequencies --   1267.6875              1277.1396              1281.5631
 Red. masses --      2.1541                 9.8354                 3.7095
 Frc consts  --      2.0396                 9.4519                 3.5896
 IR Inten    --    235.3085               309.9674               130.8853

                     85                     86                     87
                      A                      A                      A
 Frequencies --   1323.3450              1345.2439              1346.6504
 Red. masses --      1.4337                 1.4611                 1.5393
 Frc consts  --      1.4793                 1.5578                 1.6447
 IR Inten    --     16.6988                14.9825                 2.5047

                     88                     89                     90
                      A                      A                      A
 Frequencies --   1360.3474              1366.0160              1369.4807
 Red. masses --      2.4770                 4.2307                 1.4245
 Frc consts  --      2.7007                 4.6513                 1.5741
 IR Inten    --      0.0044                 3.8189                 6.9581

                     91                     92                     93
                      A                      A                      A
 Frequencies --   1404.2045              1444.5452              1455.7308
 Red. masses --      1.4581                 1.2511                 1.1100
 Frc consts  --      1.6940                 1.5382                 1.3859
 IR Inten    --      6.2943                65.1548                29.3796

                     94                     95                     96
                      A                      A                      A
 Frequencies --   1469.7146              1492.2866              1497.3735
 Red. masses --      1.1029                 2.1856                 2.1055
 Frc consts  --      1.4037                 2.8676                 2.7814
 IR Inten    --      3.0427                24.2682                 6.7367

                     97                     98                     99
                      A                      A                      A
 Frequencies --   1507.7425              1523.9023              1525.6854
 Red. masses --      1.1006                 1.1052                 2.0471
 Frc consts  --      1.4741                 1.5122                 2.8075
 IR Inten    --      4.1838                 4.3639                 4.3855

                    100                    101                    102
                      A                      A                      A
 Frequencies --   1543.7620              1641.7963              1644.4533
 Red. masses --      2.2423                 5.5921                 5.4949
 Frc consts  --      3.1485                 8.8811                 8.7550
 IR Inten    --     20.9247                 1.2228                 2.4519

                    103                    104                    105
                      A                      A                      A
 Frequencies --   1645.4153              1662.7997              3061.9859
 Red. masses --      5.8336                 5.7217                 1.0599
 Frc consts  --      9.3054                 9.3208                 5.8552
 IR Inten    --      0.1644                10.1694                40.1578

                    106                    107                    108
                      A                      A                      A
 Frequencies --   3079.1274              3105.6313              3140.5330
 Red. masses --      1.0657                 1.1002                 1.0997
 Frc consts  --      5.9533                 6.2522                 6.3906
 IR Inten    --     26.6516                36.7465                21.5695

                    109                    110                    111
                      A                      A                      A
 Frequencies --   3144.3352              3146.3384              3188.8101
 Red. masses --      1.0575                 1.0583                 1.0873
 Frc consts  --      6.1603                 6.1725                 6.5140
 IR Inten    --      0.5640                 2.6705                16.8809

                    112                    113                    114
                      A                      A                      A
 Frequencies --   3192.7466              3202.1214              3211.6694
 Red. masses --      1.0869                 1.0896                 1.0937
 Frc consts  --      6.5279                 6.5825                 6.6468
 IR Inten    --     12.0325                16.8899                72.8327

                    115                    116                    117
                      A                      A                      A
 Frequencies --   3215.3012              3220.3353              3221.5832
 Red. masses --      1.0868                 1.1121                 1.1114
 Frc consts  --      6.6200                 6.7952                 6.7960
 IR Inten    --      1.7405                 0.3865                 0.9230

                    118                    119                    120
                      A                      A                      A
 Frequencies --   3222.3028              3226.2243              3232.0594
 Red. masses --      1.0978                 1.0894                 1.0932
 Frc consts  --      6.7162                 6.6809                 6.7284
 IR Inten    --     31.3765                13.6882                23.0911

                    121                    122                    123
                      A                      A                      A
 Frequencies --   3241.6303              3253.7045              3505.0594
 Red. masses --      1.0963                 1.0929                 1.0762
 Frc consts  --      6.7874                 6.8167                 7.7901
 IR Inten    --     15.9011                 4.6530               151.9829

 - Thermochemistry -
 -------------------
 Temperature   298.150 Kelvin.  Pressure   1.00000 Atm.
 Atom     1 has atomic number  8 and mass  15.99491

 Molecular mass:   365.07555 amu.
 Principal axes and moments of inertia in atomic units:
                           1         2         3
     Eigenvalues --  5642.84105********************
           X            0.99999  -0.00534   0.00050
           Y            0.00534   0.99998  -0.00125
           Z           -0.00050   0.00125   1.00000
 This molecule is an asymmetric top.
 Rotational symmetry number  1.
 Warning -- assumption of classical behavior for rotation
           may cause significant error
 Rotational temperatures (Kelvin)      0.01535     0.00583     0.00460
 Rotational constants (GHZ):           0.31983     0.12142     0.09581
    2 imaginary frequencies ignored.
 Zero-point vibrational energy     891836.5 (Joules/Mol)
                                  213.15404 (Kcal/Mol)
 Warning -- explicit consideration of  33 degrees of freedom as
           vibrations may cause significant error
 Vibrational temperatures:     27.49    34.79    46.15    77.21    99.83
          (Kelvin)            117.65   152.81   187.22   213.85   276.93
                              286.99   333.18   352.88   385.10   402.68
                              436.75   452.08   461.25   506.15   542.45
                              558.34   589.79   592.93   601.13   644.38
                              677.43   699.49   746.19   750.83   791.83
                              817.14   874.62   889.43   900.23   913.46
                             1002.27  1029.33  1033.59  1061.97  1096.92
                             1100.96  1101.95  1137.74  1166.33  1179.35
                             1224.50  1232.48  1246.71  1253.19  1311.11
                             1343.42  1362.40  1407.44  1413.76  1422.03
                             1442.91  1453.38  1459.70  1462.97  1466.57
                             1504.49  1508.95  1514.72  1518.42  1541.32
                             1553.84  1568.65  1601.44  1606.23  1623.42
                             1645.58  1701.31  1711.26  1715.14  1730.76
                             1740.14  1752.28  1779.36  1810.76  1823.92
                             1837.52  1843.88  1904.00  1935.51  1937.53
                             1957.24  1965.39  1970.38  2020.34  2078.38
                             2094.47  2114.59  2147.07  2154.39  2169.31
                             2192.56  2195.12  2221.13  2362.18  2366.00
                             2367.39  2392.40  4405.51  4430.18  4468.31
                             4518.53  4524.00  4526.88  4587.99  4593.65
                             4607.14  4620.88  4626.10  4633.34  4635.14
                             4636.17  4641.82  4650.21  4663.98  4681.36
                             5043.00

 Zero-point correction=                           0.339683 (Hartree/Particle)
 Thermal correction to Energy=                    0.360097
 Thermal correction to Enthalpy=                  0.361041
 Thermal correction to Gibbs Free Energy=         0.288545
 Sum of electronic and zero-point Energies=          -1810.812712
 Sum of electronic and thermal Energies=             -1810.792298
 Sum of electronic and thermal Enthalpies=           -1810.791354
 Sum of electronic and thermal Free Energies=        -1810.863850

                     E (Thermal)             CV                S
                      KCal/Mol        Cal/Mol-Kelvin    Cal/Mol-Kelvin
 Total                  225.964             81.565            152.579
 Electronic               0.000              0.000              0.000
 Translational            0.889              2.981             43.578
 Rotational               0.889              2.981             35.712
 Vibrational            224.187             75.604             73.290
 Vibration     1          0.593              1.986              6.725
 Vibration     2          0.593              1.985              6.257
 Vibration     3          0.594              1.983              5.697
 Vibration     4          0.596              1.976              4.678
 Vibration     5          0.598              1.969              4.171
 Vibration     6          0.600              1.962              3.848
 Vibration     7          0.605              1.944              3.337
 Vibration     8          0.612              1.923              2.944
 Vibration     9          0.618              1.904              2.690
 Vibration    10          0.634              1.850              2.204
 Vibration    11          0.638              1.841              2.138
 Vibration    12          0.653              1.793              1.867
 Vibration    13          0.660              1.771              1.764
 Vibration    14          0.673              1.733              1.611
 Vibration    15          0.680              1.711              1.534
 Vibration    16          0.695              1.667              1.397
 Vibration    17          0.702              1.647              1.340
 Vibration    18          0.706              1.634              1.307
 Vibration    19          0.728              1.572              1.158
 Vibration    20          0.748              1.519              1.051
 Vibration    21          0.756              1.496              1.008
 Vibration    22          0.774              1.449              0.927
 Vibration    23          0.776              1.444              0.919
 Vibration    24          0.781              1.432              0.899
 Vibration    25          0.807              1.366              0.802
 Vibration    26          0.828              1.315              0.735
 Vibration    27          0.842              1.281              0.694
 Vibration    28          0.874              1.209              0.613
 Vibration    29          0.877              1.202              0.606
 Vibration    30          0.906              1.139              0.543
 Vibration    31          0.924              1.101              0.508
 Vibration    32          0.967              1.015              0.436
 Vibration    33          0.978              0.993              0.419

                           ! Non-Optimized Parameters !
 Normal termination of Gaussian 16 at Tue Sep 15 08:17:28 2020.

 ----------------------------------------------------------------------
 #p b3lyp/6-31G(d) scrf=(iefpcm,read,solvent=water) geom=allcheck guess
 =read
 ----------------------------------------------------------------------

 Structure from the checkpoint file:  "SM39_m0.n.11.pdb.xyz.mst.n.w.chk"
 --------------------
 SM39_m0.n.11.pdb.xyz
 --------------------
 Charge =  0 Multiplicity = 1

 SCF Done:  E(RB3LYP) =  -1811.15240521     A.U. after    5 cycles
 Normal termination of Gaussian 16 at Tue Sep 15 08:18:16 2020.

 -----------------------------
 #p B3LYP/6-31G* geom=allcheck
 -----------------------------

 Structure from the checkpoint file:  "SM39_m0.n.11.pdb.xyz.mst.n.w.chk"
 --------------------
 SM39_m0.n.11.pdb.xyz
 --------------------
 Charge =  0 Multiplicity = 1

 SCF Done:  E(RB3LYP) =  -1811.12284298     A.U. after   15 cycles
 Normal termination of Gaussian 16 at Tue Sep 15 08:19:32 2020.
 Gaussian 16:  ES64L-G16RevB.01 20-Dec-2017

 ----------------------------------------------------------------------
 #p mp2/aug-cc-pVDZ scf=(MaxCycle=2000,NoVarAcc,NoIncFock) maxdisk=180G
 B geom=allcheck
 ----------------------------------------------------------------------

 Structure from the checkpoint file:  "SM39_m0.n.11.pdb.xyz.mst.n.w.chk"
 --------------------
 SM39_m0.n.11.pdb.xyz
 --------------------
 Charge =  0 Multiplicity = 1

                         Standard orientation:
 ---------------------------------------------------------------------
 Center     Atomic      Atomic             Coordinates (Angstroms)
 Number     Number       Type             X           Y           Z
 ---------------------------------------------------------------------
      1          8           0        0.726790   -1.680648    1.203456
      2         16           0        1.307157   -1.605254   -0.147452
      3          7           0        0.687934   -0.276543   -0.968099
      4          6           0       -0.104832    0.764719   -0.295104
      5          6           0       -0.170048    2.016302   -1.239051
      6         16           0        0.382657    3.081577    0.133583
      7          6           0        0.689898    1.442856    0.869877
      8          8           0        1.604602    3.855974   -0.152583
      9          8           0       -0.750050    3.773380    0.782384
     10          6           0       -1.502144    0.316825    0.177035
     11          6           0       -2.424892   -0.207021   -0.936190
     12          6           0       -3.788808   -0.587859   -0.403805
     13          6           0       -4.827268    0.351328   -0.347813
     14          6           0       -6.077506    0.007200    0.169043
     15          6           0       -6.309411   -1.286957    0.639693
     16          6           0       -5.282840   -2.232504    0.588486
     17          6           0       -4.034797   -1.883440    0.070390
     18          6           0        3.048322   -1.238190    0.039831
     19          6           0        3.593143   -1.202448    1.322710
     20          6           0        4.960076   -0.959394    1.466641
     21          6           0        5.757544   -0.761340    0.339298
     22          6           0        5.195674   -0.805624   -0.940212
     23          6           0        3.834677   -1.046964   -1.099242
     24          8           0        1.169146   -2.742394   -1.071947
     25          1           0        0.298378   -0.583279   -1.862052
     26          1           0       -1.148710    2.277917   -1.637059
     27          1           0        0.587039    1.997513   -2.021857
     28          1           0        0.280282    1.323526    1.871080
     29          1           0        1.759324    1.236034    0.855764
     30          1           0       -1.980310    1.171995    0.666874
     31          1           0       -1.365652   -0.454338    0.939163
     32          1           0       -1.968828   -1.081086   -1.411321
     33          1           0       -2.536244    0.559177   -1.711669
     34          1           0       -4.655168    1.358725   -0.717268
     35          1           0       -6.870478    0.747948    0.199691
     36          1           0       -7.281616   -1.557297    1.038656
     37          1           0       -5.454452   -3.242558    0.947170
     38          1           0       -3.241676   -2.624592    0.028320
     39          1           0        2.954700   -1.360222    2.182549
     40          1           0        5.396660   -0.926540    2.458371
     41          1           0        6.819099   -0.571898    0.454477
     42          1           0        5.817909   -0.651385   -1.814237
     43          1           0        3.392545   -1.080435   -2.088030
 ---------------------------------------------------------------------

 SCF Done:  E(RHF) =  -1803.71828583     A.U. after   16 cycles
 E2 =    -0.3643560420D+01 EUMP2 =    -0.18073618462485D+04

 The electronic state is 1-A.
 Alpha  occ. eigenvalues --  -92.24588 -92.20447 -20.57938 -20.57578 -20.56446
 Alpha  occ. eigenvalues --  -20.56297 -15.63436 -11.34508 -11.30180 -11.30168
 Alpha  occ. eigenvalues --  -11.29816 -11.28704 -11.28482 -11.28050 -11.27526
 Alpha  occ. eigenvalues --  -11.27438 -11.25647 -11.25525 -11.25400 -11.24671
 Alpha  occ. eigenvalues --  -11.24617 -11.24436 -11.24332 -11.24299  -9.21361
 Alpha  occ. eigenvalues --   -9.17708  -6.89908  -6.89859  -6.89734  -6.86199
 Alpha  occ. eigenvalues --   -6.86104  -6.86035  -1.47608  -1.44587  -1.35611
 Alpha  occ. eigenvalues --   -1.33327  -1.27543  -1.19635  -1.16393  -1.15258
 Alpha  occ. eigenvalues --   -1.08217  -1.07131  -1.05653  -1.01953  -1.01031
 Alpha  occ. eigenvalues --   -0.99206  -0.94502  -0.91141  -0.86908  -0.85930
 Alpha  occ. eigenvalues --   -0.83349  -0.82803  -0.80356  -0.78909  -0.75765
 Alpha  occ. eigenvalues --   -0.73273  -0.71687  -0.70438  -0.69612  -0.69032
 Alpha  occ. eigenvalues --   -0.67277  -0.66802  -0.65756  -0.65112  -0.64647
 Alpha  occ. eigenvalues --   -0.64325  -0.62977  -0.62739  -0.62642  -0.61935
 Alpha  occ. eigenvalues --   -0.60012  -0.58926  -0.58480  -0.56811  -0.56082
 Alpha  occ. eigenvalues --   -0.55651  -0.54627  -0.53380  -0.52893  -0.52760
 Alpha  occ. eigenvalues --   -0.51837  -0.50577  -0.49539  -0.49289  -0.49106
 Alpha  occ. eigenvalues --   -0.49045  -0.48892  -0.48352  -0.47323  -0.46698
 Alpha  occ. eigenvalues --   -0.43866  -0.43241  -0.37730  -0.37100  -0.33985
 Alpha  occ. eigenvalues --   -0.33211
 Alpha virt. eigenvalues --    0.02374   0.02932   0.03426   0.03777   0.04218
 Alpha virt. eigenvalues --    0.04567   0.05105   0.05272   0.05865   0.06134
 Alpha virt. eigenvalues --    0.06257   0.06747   0.07024   0.07522   0.07821

 Mulliken charges:
               1
     1  O   -1.261775
     2  S    2.849004
     3  N   -0.902421
     4  C   -0.378559
     5  C    0.599669
     6  S    2.929079
     7  C    0.750836
     8  O   -1.248035
     9  O   -1.270572
    10  C   -0.022744
    11  C    1.030735
    12  C    1.045406
    13  C    0.504206
    14  C    0.078431
    15  C    0.674312
    16  C    0.012987
    17  C    0.514724
    18  C    0.719971
    19  C    0.407608
    20  C    0.383709
    21  C    0.658552
    22  C    0.398119
    23  C    0.278270
    24  O   -1.177093
    25  H   -0.062848
    26  H   -0.230622
    27  H   -0.294103
    28  H   -0.333199
    29  H   -0.224353
    30  H   -0.161249
    31  H   -0.227697
    32  H   -0.343539
    33  H   -0.314648
    34  H   -0.675597
    35  H   -0.468180
    36  H   -0.437189
    37  H   -0.474569
    38  H   -0.663670
    39  H   -0.624582
    40  H   -0.459020
    41  H   -0.438868
    42  H   -0.472016
    43  H   -0.668470
 Sum of Mulliken charges =  -0.00000

 Dipole moment (field-independent basis, Debye):
    X=              2.3385    Y=             -2.1872    Z=             -1.9477  Tot=              3.7478
 Quadrupole moment (field-independent basis, Debye-Ang):
   XX=           -128.8397   YY=           -199.3039   ZZ=           -150.1729
   XY=             -4.3787   XZ=              2.8327   YZ=             -9.2445

 Normal termination of Gaussian 16 at Tue Sep 15 09:51:22 2020.
