 Gaussian 16, Revision B.01,

 ----------------------------------------------------------------------
 #p b3lyp/6-31G(d) opt freq NoSymm scf=(MaxCycle=2000,NoVarAcc,NoIncFoc
 k) scrf=(iefpcm,read,solvent=water)
 ----------------------------------------------------------------------

 --------------------
 SM39_m0.n.10.pdb.xyz
 --------------------
 Symbolic Z-matrix:
 Charge =  0 Multiplicity = 1

 SCF Done:  E(RB3LYP) =  -1811.14926664     A.U. after   13 cycles
 SCF Done:  E(RB3LYP) =  -1811.14940134     A.U. after   10 cycles
 SCF Done:  E(RB3LYP) =  -1811.14932783     A.U. after   10 cycles
 SCF Done:  E(RB3LYP) =  -1811.14950007     A.U. after   10 cycles
 SCF Done:  E(RB3LYP) =  -1811.14947170     A.U. after    9 cycles
 SCF Done:  E(RB3LYP) =  -1811.14947539     A.U. after    8 cycles
 SCF Done:  E(RB3LYP) =  -1811.14949963     A.U. after    9 cycles
 SCF Done:  E(RB3LYP) =  -1811.14949951     A.U. after    5 cycles
 SCF Done:  E(RB3LYP) =  -1811.14949948     A.U. after    4 cycles
 SCF Done:  E(RB3LYP) =  -1811.14949947     A.U. after    2 cycles
 SCF Done:  E(RB3LYP) =  -1811.14949958     A.U. after    9 cycles
 SCF Done:  E(RB3LYP) =  -1811.14949984     A.U. after    7 cycles
 SCF Done:  E(RB3LYP) =  -1811.14948983     A.U. after    9 cycles
 SCF Done:  E(RB3LYP) =  -1811.14949367     A.U. after    7 cycles
 SCF Done:  E(RB3LYP) =  -1811.14949976     A.U. after    8 cycles
 SCF Done:  E(RB3LYP) =  -1811.14949461     A.U. after    8 cycles
 Optimization completed on the basis of negligible forces.
    -- Stationary point found.
 Normal termination of Gaussian 16 at Tue Sep 22 04:12:05 2020.

 --------------------------------------------------------------------
 #P Geom=AllCheck Guess=TCheck SCRF=Check GenChk RB3LYP/6-31G(d) Freq
 --------------------------------------------------------------------

 Structure from the checkpoint file:  "SM39_m0.n.10.pdb.xyz.mst.n.w.chk"
 --------------------
 SM39_m0.n.10.pdb.xyz
 --------------------
 Charge =  0 Multiplicity = 1

 SCF Done:  E(RB3LYP) =  -1811.14949461     A.U. after    1 cycles

  Exact polarizability: 300.460  18.801 280.581   4.916 -23.714 299.516
 Approx polarizability: 326.331  14.386 311.986   0.138 -27.898 371.683

                      1                      2                      3
                      A                      A                      A
 Frequencies --      7.4724                23.0571                29.0719
 Red. masses --      4.8076                 6.1717                 5.0698
 Frc consts  --      0.0002                 0.0019                 0.0025
 IR Inten    --      0.6709                 0.2600                 0.2470

                      4                      5                      6
                      A                      A                      A
 Frequencies --     35.2930                41.4483                48.2278
 Red. masses --      4.7511                 4.5965                 5.5777
 Frc consts  --      0.0035                 0.0047                 0.0076
 IR Inten    --      0.2596                 2.3990                 0.6384

                      7                      8                      9
                      A                      A                      A
 Frequencies --     68.5853               102.9560               116.8816
 Red. masses --      5.3132                 5.4463                 8.3984
 Frc consts  --      0.0147                 0.0340                 0.0676
 IR Inten    --     10.5008                 0.3092                 6.8176

                     10                     11                     12
                      A                      A                      A
 Frequencies --    140.9626               168.3155               183.6457
 Red. masses --      7.0680                 5.4901                 4.5648
 Frc consts  --      0.0827                 0.0916                 0.0907
 IR Inten    --      2.4271                 1.5194                 0.2267

                     13                     14                     15
                      A                      A                      A
 Frequencies --    196.9806               230.9213               263.0379
 Red. masses --      5.8256                 6.1084                 3.2713
 Frc consts  --      0.1332                 0.1919                 0.1334
 IR Inten    --      2.9219                 4.8611                 1.4079

                     16                     17                     18
                      A                      A                      A
 Frequencies --    281.7563               293.4899               304.2301
 Red. masses --      5.2829                 2.5327                 5.1240
 Frc consts  --      0.2471                 0.1285                 0.2794
 IR Inten    --     10.8306                 0.5387                 6.6355

                     19                     20                     21
                      A                      A                      A
 Frequencies --    314.3014               335.9908               339.7206
 Red. masses --      6.5295                 3.1932                 2.8086
 Frc consts  --      0.3800                 0.2124                 0.1910
 IR Inten    --      4.1568                16.8448                13.8642

                     22                     23                     24
                      A                      A                      A
 Frequencies --    383.8780               409.4403               412.7938
 Red. masses --      4.0409                 4.0557                 2.9579
 Frc consts  --      0.3508                 0.4006                 0.2970
 IR Inten    --      6.6371                56.3731                 0.5208

                     25                     26                     27
                      A                      A                      A
 Frequencies --    419.1745               422.2296               449.0501
 Red. masses --      2.9602                 3.0517                 4.4681
 Frc consts  --      0.3064                 0.3205                 0.5308
 IR Inten    --      0.0567                 1.2096                84.0308

                     28                     29                     30
                      A                      A                      A
 Frequencies --    462.1997               488.4423               496.3810
 Red. masses --      3.7203                 3.6135                 2.1005
 Frc consts  --      0.4683                 0.5079                 0.3049
 IR Inten    --      3.1662                 1.6009                81.1597

                     31                     32                     33
                      A                      A                      A
 Frequencies --    525.5950               553.7602               568.3035
 Red. masses --      4.3192                 6.8865                 3.3390
 Frc consts  --      0.7030                 1.2442                 0.6354
 IR Inten    --     31.6246               115.5195                62.1950

                     34                     35                     36
                      A                      A                      A
 Frequencies --    585.1432               622.8170               624.8578
 Red. masses --      5.7554                 5.7429                 6.3724
 Frc consts  --      1.1610                 1.3125                 1.4659
 IR Inten    --    144.7102               123.3982                 3.0317

                     37                     38                     39
                      A                      A                      A
 Frequencies --    633.8056               697.2654               714.3040
 Red. masses --      6.3644                 2.4933                 2.3275
 Frc consts  --      1.5063                 0.7142                 0.6997
 IR Inten    --      0.9468                43.1470                28.5269

                     40                     41                     42
                      A                      A                      A
 Frequencies --    716.6691               724.0863               755.1491
 Red. masses --      4.8183                 2.4466                 1.8085
 Frc consts  --      1.4581                 0.7558                 0.6076
 IR Inten    --     11.0666                42.5090                48.8500

                     43                     44                     45
                      A                      A                      A
 Frequencies --    757.8921               764.5010               784.3800
 Red. masses --      4.5135                 1.5017                 3.5699
 Frc consts  --      1.5275                 0.5171                 1.2941
 IR Inten    --     54.8120                44.7411                 5.6881

                     46                     47                     48
                      A                      A                      A
 Frequencies --    800.4903               822.7362               856.2897
 Red. masses --      3.3447                 1.6097                 3.0587
 Frc consts  --      1.2627                 0.6420                 1.3214
 IR Inten    --      1.9574                14.6034               278.4607

                     49                     50                     51
                      A                      A                      A
 Frequencies --    859.7788               868.0896               893.2189
 Red. masses --      1.2736                 1.2506                 2.0367
 Frc consts  --      0.5547                 0.5553                 0.9574
 IR Inten    --      9.9161                 0.1706                 0.2651

                     52                     53                     54
                      A                      A                      A
 Frequencies --    915.8407               936.1771               947.0928
 Red. masses --      2.0824                 2.0261                 1.3125
 Frc consts  --      1.0291                 1.0462                 0.6936
 IR Inten    --     27.0408                12.8111                 1.6542

                     55                     56                     57
                      A                      A                      A
 Frequencies --    961.6489               979.9262               991.2419
 Red. masses --      1.8726                 1.3547                 1.3545
 Frc consts  --      1.0203                 0.7664                 0.7841
 IR Inten    --     12.8390                 0.1267                 0.6873

                     58                     59                     60
                      A                      A                      A
 Frequencies --    996.2839              1003.1596              1013.0928
 Red. masses --      2.0699                 1.2607                 6.2985
 Frc consts  --      1.2105                 0.7475                 3.8088
 IR Inten    --     58.3727                 1.0887                 7.1159

                     61                     62                     63
                      A                      A                      A
 Frequencies --   1016.3697              1018.4517              1033.1370
 Red. masses --      6.1579                 1.2798                 1.8042
 Frc consts  --      3.7479                 0.7821                 1.1346
 IR Inten    --      0.4410                 0.0898                23.1451

                     64                     65                     66
                      A                      A                      A
 Frequencies --   1044.4897              1047.4268              1057.8305
 Red. masses --      1.4107                 3.1788                 2.1798
 Frc consts  --      0.9068                 2.0548                 1.4371
 IR Inten    --     32.9716                15.9489                28.9278

                     67                     68                     69
                      A                      A                      A
 Frequencies --   1067.4444              1080.7303              1086.9896
 Red. masses --      2.7455                 3.5365                 2.1913
 Frc consts  --      1.8431                 2.4336                 1.5255
 IR Inten    --    237.0469                96.6810                25.7050

                     70                     71                     72
                      A                      A                      A
 Frequencies --   1104.3660              1110.4130              1126.2535
 Red. masses --      2.1913                 1.6125                 3.8794
 Frc consts  --      1.5746                 1.1714                 2.8992
 IR Inten    --     57.6417                20.4847               256.0030

                     73                     74                     75
                      A                      A                      A
 Frequencies --   1133.8484              1181.4477              1188.1603
 Red. masses --      2.6787                 1.3296                 1.0882
 Frc consts  --      2.0290                 1.0934                 0.9051
 IR Inten    --     23.8747                10.2959                 0.4372

                     76                     77                     78
                      A                      A                      A
 Frequencies --   1188.7208              1207.8536              1208.4929
 Red. masses --      1.0952                 1.2276                 1.1894
 Frc consts  --      0.9118                 1.0552                 1.0234
 IR Inten    --      0.0747                 8.7932                 9.0596

                     79                     80                     81
                      A                      A                      A
 Frequencies --   1209.0209              1229.2971              1247.8085
 Red. masses --      1.2901                 2.3857                 1.7207
 Frc consts  --      1.1111                 2.1241                 1.5786
 IR Inten    --     20.3375                 0.1192                82.2511

                     82                     83                     84
                      A                      A                      A
 Frequencies --   1266.5135              1271.6935              1291.0645
 Red. masses --      3.1739                 7.2558                 3.2163
 Frc consts  --      2.9996                 6.9135                 3.1587
 IR Inten    --     33.1033               543.7763               168.9774

                     85                     86                     87
                      A                      A                      A
 Frequencies --   1303.9671              1346.1752              1348.3950
 Red. masses --      1.4849                 1.6190                 2.6890
 Frc consts  --      1.4876                 1.7286                 2.8806
 IR Inten    --     38.6365                 1.9522                 1.2477

                     88                     89                     90
                      A                      A                      A
 Frequencies --   1362.7547              1362.8734              1385.8358
 Red. masses --      3.8281                 1.7231                 1.4013
 Frc consts  --      4.1886                 1.8857                 1.5856
 IR Inten    --      4.3988                 0.2067                 2.4314

                     91                     92                     93
                      A                      A                      A
 Frequencies --   1398.7081              1446.5547              1460.6476
 Red. masses --      1.4195                 1.0993                 1.2104
 Frc consts  --      1.6362                 1.3553                 1.5215
 IR Inten    --      1.8127                23.3876                32.2610

                     94                     95                     96
                      A                      A                      A
 Frequencies --   1482.2321              1490.0140              1494.6324
 Red. masses --      1.1359                 2.1818                 1.6294
 Frc consts  --      1.4703                 2.8539                 2.1446
 IR Inten    --     29.1678                25.3594                 1.5453

                     97                     98                     99
                      A                      A                      A
 Frequencies --   1500.4904              1506.3118              1525.1976
 Red. masses --      1.0990                 1.3022                 2.0383
 Frc consts  --      1.4578                 1.7408                 2.7936
 IR Inten    --     16.9407                12.2255                 4.6662

                    100                    101                    102
                      A                      A                      A
 Frequencies --   1543.2410              1640.0501              1641.0144
 Red. masses --      2.2145                 5.4766                 5.4155
 Frc consts  --      3.1074                 8.6791                 8.5924
 IR Inten    --     18.0346                 1.5245                 2.9085

                    103                    104                    105
                      A                      A                      A
 Frequencies --   1643.2693              1661.3675              3058.7404
 Red. masses --      5.8561                 5.6278                 1.0687
 Frc consts  --      9.3170                 9.1521                 5.8908
 IR Inten    --      0.1046                 9.2440                32.6560

                    106                    107                    108
                      A                      A                      A
 Frequencies --   3085.1590              3122.0412              3129.7299
 Red. masses --      1.0618                 1.0991                 1.0976
 Frc consts  --      5.9548                 6.3119                 6.3342
 IR Inten    --     21.0608                17.4353                34.7461

                    109                    110                    111
                      A                      A                      A
 Frequencies --   3139.7293              3143.5579              3194.5302
 Red. masses --      1.0610                 1.0579                 1.0865
 Frc consts  --      6.1622                 6.1596                 6.5325
 IR Inten    --      5.8283                 1.4977                16.1881

                    112                    113                    114
                      A                      A                      A
 Frequencies --   3195.8650              3208.1173              3213.3550
 Red. masses --      1.0879                 1.0902                 1.0868
 Frc consts  --      6.5466                 6.6109                 6.6117
 IR Inten    --     13.6402                18.0664                 1.2853

                    115                    116                    117
                      A                      A                      A
 Frequencies --   3216.4253              3218.4563              3223.9389
 Red. masses --      1.0930                 1.1128                 1.0895
 Frc consts  --      6.6620                 6.7917                 6.6721
 IR Inten    --     62.3756                 0.3973                13.3874

                    118                    119                    120
                      A                      A                      A
 Frequencies --   3225.1216              3229.9309              3230.9056
 Red. masses --      1.1069                 1.0973                 1.0935
 Frc consts  --      6.7832                 6.7446                 6.7254
 IR Inten    --      8.8745                34.9952                23.5687

                    121                    122                    123
                      A                      A                      A
 Frequencies --   3238.6693              3253.4777              3488.2996
 Red. masses --      1.0961                 1.0930                 1.0763
 Frc consts  --      6.7739                 6.8163                 7.7165
 IR Inten    --     13.3561                 4.8186               132.0186

 - Thermochemistry -
 -------------------
 Temperature   298.150 Kelvin.  Pressure   1.00000 Atm.
 Atom     1 has atomic number  8 and mass  15.99491

 Molecular mass:   365.07555 amu.
 Principal axes and moments of inertia in atomic units:
                           1         2         3
     Eigenvalues --  6934.91438********************
           X            0.99930  -0.03546   0.01188
           Y            0.03546   0.99937   0.00068
           Z           -0.01189  -0.00026   0.99993
 This molecule is an asymmetric top.
 Rotational symmetry number  1.
 Warning -- assumption of classical behavior for rotation
           may cause significant error
 Rotational temperatures (Kelvin)      0.01249     0.00795     0.00556
 Rotational constants (GHZ):           0.26024     0.16575     0.11578
 Zero-point vibrational energy     891942.5 (Joules/Mol)
                                  213.17937 (Kcal/Mol)
 Warning -- explicit consideration of  34 degrees of freedom as
           vibrations may cause significant error
 Vibrational temperatures:     10.75    33.17    41.83    50.78    59.63
          (Kelvin)             69.39    98.68   148.13   168.17   202.81
                              242.17   264.23   283.41   332.24   378.45
                              405.38   422.27   437.72   452.21   483.42
                              488.78   552.31   589.09   593.92   603.10
                              607.49   646.08   665.00   702.76   714.18
                              756.21   796.74   817.66   841.89   896.09
                              899.03   911.90  1003.21  1027.72  1031.13
                             1041.80  1086.49  1090.44  1099.95  1128.55
                             1151.73  1183.73  1232.01  1237.03  1248.99
                             1285.14  1317.69  1346.95  1362.66  1383.60
                             1409.90  1426.18  1433.43  1443.32  1457.61
                             1462.33  1465.32  1486.45  1502.79  1507.01
                             1521.98  1535.81  1554.93  1563.94  1588.94
                             1597.64  1620.43  1631.35  1699.84  1709.50
                             1710.30  1737.83  1738.75  1739.51  1768.68
                             1795.32  1822.23  1829.68  1857.55  1876.12
                             1936.85  1940.04  1960.70  1960.87  1993.91
                             2012.43  2081.27  2101.55  2132.60  2143.80
                             2150.44  2158.87  2167.25  2194.42  2220.38
                             2359.67  2361.05  2364.30  2390.34  4400.85
                             4438.86  4491.92  4502.98  4517.37  4522.88
                             4596.22  4598.14  4615.77  4623.30  4627.72
                             4630.64  4638.53  4640.23  4647.15  4648.55
                             4659.72  4681.03  5018.89

 Zero-point correction=                           0.339723 (Hartree/Particle)
 Thermal correction to Energy=                    0.361747
 Thermal correction to Enthalpy=                  0.362691
 Thermal correction to Gibbs Free Energy=         0.284708
 Sum of electronic and zero-point Energies=          -1810.809772
 Sum of electronic and thermal Energies=             -1810.787748
 Sum of electronic and thermal Enthalpies=           -1810.786804
 Sum of electronic and thermal Free Energies=        -1810.864787

                     E (Thermal)             CV                S
                      KCal/Mol        Cal/Mol-Kelvin    Cal/Mol-Kelvin
 Total                  227.000             85.532            164.130
 Electronic               0.000              0.000              0.000
 Translational            0.889              2.981             43.578
 Rotational               0.889              2.981             35.419
 Vibrational            225.222             79.570             85.133
 Vibration     1          0.593              1.987              8.590
 Vibration     2          0.593              1.985              6.352
 Vibration     3          0.593              1.984              5.892
 Vibration     4          0.594              1.982              5.507
 Vibration     5          0.594              1.981              5.189
 Vibration     6          0.595              1.978              4.889
 Vibration     7          0.598              1.969              4.194
 Vibration     8          0.605              1.947              3.398
 Vibration     9          0.608              1.935              3.151
 Vibration    10          0.615              1.912              2.791
 Vibration    11          0.625              1.881              2.454
 Vibration    12          0.631              1.862              2.291
 Vibration    13          0.636              1.844              2.161
 Vibration    14          0.653              1.794              1.872
 Vibration    15          0.670              1.741              1.642
 Vibration    16          0.681              1.707              1.523
 Vibration    17          0.688              1.686              1.454
 Vibration    18          0.695              1.666              1.394
 Vibration    19          0.702              1.646              1.340
 Vibration    20          0.717              1.604              1.231
 Vibration    21          0.720              1.596              1.213
 Vibration    22          0.753              1.505              1.024
 Vibration    23          0.774              1.450              0.929
 Vibration    24          0.777              1.442              0.917
 Vibration    25          0.782              1.429              0.895
 Vibration    26          0.785              1.422              0.884
 Vibration    27          0.808              1.363              0.799
 Vibration    28          0.820              1.334              0.760
 Vibration    29          0.844              1.276              0.688
 Vibration    30          0.852              1.258              0.667
 Vibration    31          0.881              1.193              0.597
 Vibration    32          0.909              1.131              0.536
 Vibration    33          0.924              1.100              0.508
 Vibration    34          0.942              1.063              0.476

 Optimization completed on the basis of negligible forces.
    -- Stationary point found.
 Normal termination of Gaussian 16 at Tue Sep 22 04:35:47 2020.

 ----------------------------------------------------------------------
 #p b3lyp/6-31G(d) scrf=(iefpcm,read,solvent=water) geom=allcheck guess
 =read
 ----------------------------------------------------------------------

 Structure from the checkpoint file:  "SM39_m0.n.10.pdb.xyz.mst.n.w.chk"
 --------------------
 SM39_m0.n.10.pdb.xyz
 --------------------
 Charge =  0 Multiplicity = 1

 SCF Done:  E(RB3LYP) =  -1811.14951822     A.U. after    6 cycles
 Normal termination of Gaussian 16 at Tue Sep 22 04:36:43 2020.

 -----------------------------
 #p B3LYP/6-31G* geom=allcheck
 -----------------------------

 Structure from the checkpoint file:  "SM39_m0.n.10.pdb.xyz.mst.n.w.chk"
 --------------------
 SM39_m0.n.10.pdb.xyz
 --------------------
 Charge =  0 Multiplicity = 1

 SCF Done:  E(RB3LYP) =  -1811.12014713     A.U. after   15 cycles
 Normal termination of Gaussian 16 at Tue Sep 22 04:38:00 2020.
 Gaussian 16:  ES64L-G16RevB.01 20-Dec-2017

 ----------------------------------------------------------------------
 #p mp2/aug-cc-pVDZ scf=(MaxCycle=2000,NoVarAcc,NoIncFock) maxdisk=120G
 B geom=allcheck
 ----------------------------------------------------------------------

 Structure from the checkpoint file:  "SM39_m0.n.10.pdb.xyz.mst.n.w.chk"
 --------------------
 SM39_m0.n.10.pdb.xyz
 --------------------
 Charge =  0 Multiplicity = 1

                         Standard orientation:
 ---------------------------------------------------------------------
 Center     Atomic      Atomic             Coordinates (Angstroms)
 Number     Number       Type             X           Y           Z
 ---------------------------------------------------------------------
      1          8           0        2.073236   -2.194854    0.938888
      2         16           0        2.177129   -1.486111   -0.347951
      3          7           0        0.641275   -1.028928   -0.886197
      4          6           0       -0.525034   -1.085152    0.008237
      5          6           0       -0.863931   -2.512805    0.583613
      6         16           0       -2.593174   -2.308972    0.045467
      7          6           0       -1.822252   -0.923263   -0.852172
      8          8           0       -3.101084   -3.388841   -0.822516
      9          8           0       -3.459506   -1.827870    1.143295
     10          6           0       -0.424027   -0.050913    1.142855
     11          6           0       -0.250480    1.416788    0.706986
     12          6           0       -1.511690    2.136937    0.270352
     13          6           0       -2.632524    2.213279    1.111292
     14          6           0       -3.779551    2.901785    0.715442
     15          6           0       -3.826028    3.532710   -0.530891
     16          6           0       -2.716322    3.469397   -1.375112
     17          6           0       -1.571022    2.776742   -0.974598
     18          6           0        3.049939    0.047103   -0.054128
     19          6           0        3.513027    0.321049    1.231982
     20          6           0        4.230659    1.498065    1.452053
     21          6           0        4.476425    2.375461    0.395403
     22          6           0        4.011028    2.082586   -0.890778
     23          6           0        3.295082    0.910815   -1.126167
     24          8           0        2.800637   -2.153479   -1.503311
     25          1           0        0.489666   -1.494288   -1.784018
     26          1           0       -0.743462   -2.658745    1.655496
     27          1           0       -0.407122   -3.325847    0.021874
     28          1           0       -2.352366    0.021190   -0.762057
     29          1           0       -1.693695   -1.196682   -1.899716
     30          1           0        0.421355   -0.342007    1.771967
     31          1           0       -1.315108   -0.151374    1.770075
     32          1           0        0.489018    1.470164   -0.095571
     33          1           0        0.180327    1.953858    1.560329
     34          1           0       -2.606528    1.727370    2.082430
     35          1           0       -4.635503    2.948309    1.379829
     36          1           0       -4.718099    4.067873   -0.838861
     37          1           0       -2.740626    3.955656   -2.345366
     38          1           0       -0.709493    2.726881   -1.634206
     39          1           0        3.313751   -0.376322    2.035990
     40          1           0        4.595991    1.724954    2.447243
     41          1           0        5.033152    3.289453    0.571043
     42          1           0        4.207036    2.765152   -1.710081
     43          1           0        2.933445    0.675066   -2.120345
 ---------------------------------------------------------------------

 SCF Done:  E(RHF) =  -1803.71564879     A.U. after   16 cycles
 E2 =    -0.3651940459D+01 EUMP2 =    -0.18073675892495D+04

 The electronic state is 1-A.
 Alpha  occ. eigenvalues --  -92.24487 -92.19742 -20.57962 -20.57514 -20.55885
 Alpha  occ. eigenvalues --  -20.55719 -15.63591 -11.34289 -11.30463 -11.29539
 Alpha  occ. eigenvalues --  -11.29151 -11.29023 -11.28792 -11.28410 -11.27880
 Alpha  occ. eigenvalues --  -11.27761 -11.26058 -11.26056 -11.25411 -11.25378
 Alpha  occ. eigenvalues --  -11.25288 -11.25064 -11.24969 -11.24879  -9.21292
 Alpha  occ. eigenvalues --   -9.17032  -6.89832  -6.89778  -6.89669  -6.85523
 Alpha  occ. eigenvalues --   -6.85426  -6.85359  -1.47545  -1.43963  -1.35559
 Alpha  occ. eigenvalues --   -1.32719  -1.27404  -1.19873  -1.16936  -1.14843
 Alpha  occ. eigenvalues --   -1.08288  -1.07364  -1.05916  -1.02630  -1.01614
 Alpha  occ. eigenvalues --   -0.98417  -0.94542  -0.91664  -0.87098  -0.85978
 Alpha  occ. eigenvalues --   -0.83899  -0.82526  -0.80389  -0.78962  -0.75661
 Alpha  occ. eigenvalues --   -0.73193  -0.71741  -0.70581  -0.69716  -0.68777
 Alpha  occ. eigenvalues --   -0.67379  -0.66439  -0.65544  -0.65175  -0.64519
 Alpha  occ. eigenvalues --   -0.63995  -0.63519  -0.62961  -0.62888  -0.61317
 Alpha  occ. eigenvalues --   -0.60208  -0.59438  -0.59003  -0.56906  -0.56135
 Alpha  occ. eigenvalues --   -0.55325  -0.54150  -0.54058  -0.53645  -0.52983
 Alpha  occ. eigenvalues --   -0.52176  -0.51150  -0.49820  -0.49355  -0.49262
 Alpha  occ. eigenvalues --   -0.48875  -0.48607  -0.48084  -0.46277  -0.46066
 Alpha  occ. eigenvalues --   -0.45026  -0.42076  -0.38066  -0.37393  -0.34742
 Alpha  occ. eigenvalues --   -0.33740
 Alpha virt. eigenvalues --    0.01909   0.02671   0.03287   0.03743   0.04211
 Alpha virt. eigenvalues --    0.04605   0.04841   0.05212   0.05815   0.06014
 Alpha virt. eigenvalues --    0.06391   0.06570   0.06854   0.07095   0.07594

 Mulliken charges:
               1
     1  O   -1.264623
     2  S    2.834949
     3  N   -1.315851
     4  C    0.047988
     5  C    0.635143
     6  S    2.954060
     7  C    0.715542
     8  O   -1.256687
     9  O   -1.276305
    10  C    0.649780
    11  C    0.107091
    12  C    0.840214
    13  C    0.524733
    14  C    0.075402
    15  C    0.802192
    16  C    0.070340
    17  C    0.740654
    18  C    0.701893
    19  C    0.474020
    20  C    0.232016
    21  C    0.748850
    22  C    0.109796
    23  C    0.640049
    24  O   -1.193661
    25  H   -0.118475
    26  H   -0.288755
    27  H   -0.255176
    28  H   -0.149816
    29  H   -0.357535
    30  H   -0.108625
    31  H   -0.180691
    32  H   -0.465577
    33  H   -0.065445
    34  H   -0.710218
    35  H   -0.499986
    36  H   -0.453310
    37  H   -0.487100
    38  H   -0.687777
    39  H   -0.640471
    40  H   -0.487262
    41  H   -0.461802
    42  H   -0.504266
    43  H   -0.675296
 Sum of Mulliken charges =  -0.00000

 Dipole moment (field-independent basis, Debye):
    X=              4.2984    Y=              7.6915    Z=             -0.1227  Tot=              8.8120
 Quadrupole moment (field-independent basis, Debye-Ang):
   XX=           -172.7907   YY=           -173.0928   ZZ=           -150.0028
   XY=             -0.2246   XZ=              7.7956   YZ=             -5.8026

 Normal termination of Gaussian 16 at Tue Sep 22 06:46:14 2020.
