 Gaussian 16, Revision B.01,

 ----------------------------------------------------------------------
 #p b3lyp/6-31G(d) opt freq NoSymm scf=(MaxCycle=2000,NoVarAcc,NoIncFoc
 k) scrf=(iefpcm,read,solvent=water)
 ----------------------------------------------------------------------

 -------------------
 SM39_m0.n.2.pdb.xyz
 -------------------
 Symbolic Z-matrix:
 Charge =  0 Multiplicity = 1

 SCF Done:  E(RB3LYP) =  -1811.14883593     A.U. after   13 cycles
 SCF Done:  E(RB3LYP) =  -1811.14879528     A.U. after   10 cycles
 SCF Done:  E(RB3LYP) =  -1811.14875526     A.U. after   10 cycles
 SCF Done:  E(RB3LYP) =  -1811.14883361     A.U. after    9 cycles
 SCF Done:  E(RB3LYP) =  -1811.14883673     A.U. after    8 cycles
 SCF Done:  E(RB3LYP) =  -1811.14881160     A.U. after   10 cycles
 SCF Done:  E(RB3LYP) =  -1811.14878643     A.U. after    9 cycles
 SCF Done:  E(RB3LYP) =  -1811.14883635     A.U. after    9 cycles
 SCF Done:  E(RB3LYP) =  -1811.14883804     A.U. after    8 cycles
 SCF Done:  E(RB3LYP) =  -1811.14879271     A.U. after   10 cycles
 SCF Done:  E(RB3LYP) =  -1811.14883800     A.U. after    8 cycles
 SCF Done:  E(RB3LYP) =  -1811.14878534     A.U. after   10 cycles
 SCF Done:  E(RB3LYP) =  -1811.14878794     A.U. after    7 cycles
 SCF Done:  E(RB3LYP) =  -1811.14883587     A.U. after    9 cycles
 SCF Done:  E(RB3LYP) =  -1811.14883799     A.U. after    8 cycles
 SCF Done:  E(RB3LYP) =  -1811.14878789     A.U. after   10 cycles
 Optimization completed.
    -- Stationary point found.
 Normal termination of Gaussian 16 at Tue Sep 22 04:10:44 2020.

 --------------------------------------------------------------------
 #P Geom=AllCheck Guess=TCheck SCRF=Check GenChk RB3LYP/6-31G(d) Freq
 --------------------------------------------------------------------

 Structure from the checkpoint file:  "SM39_m0.n.2.pdb.xyz.mst.n.w.chk"
 -------------------
 SM39_m0.n.2.pdb.xyz
 -------------------
 Charge =  0 Multiplicity = 1

 SCF Done:  E(RB3LYP) =  -1811.14878789     A.U. after    1 cycles

  Exact polarizability: 330.664  15.168 296.867  14.921 -59.792 254.438
 Approx polarizability: 380.489  10.543 332.683  17.352 -63.988 298.919

                      1                      2                      3
                      A                      A                      A
 Frequencies --     13.4556                22.6290                30.3272
 Red. masses --      6.0086                 5.0668                 6.1788
 Frc consts  --      0.0006                 0.0015                 0.0033
 IR Inten    --      1.6166                 2.0613                 4.5412

                      4                      5                      6
                      A                      A                      A
 Frequencies --     38.9507                42.6395                44.6925
 Red. masses --      5.8151                 6.3519                 4.8703
 Frc consts  --      0.0052                 0.0068                 0.0057
 IR Inten    --      3.8786                 0.9729                 0.6862

                      7                      8                      9
                      A                      A                      A
 Frequencies --     57.2950                99.7520               129.9025
 Red. masses --      3.8021                 7.1360                 5.9567
 Frc consts  --      0.0074                 0.0418                 0.0592
 IR Inten    --      0.7591                 1.4726                 5.8748

                     10                     11                     12
                      A                      A                      A
 Frequencies --    152.6280               157.1730               184.0095
 Red. masses --      6.4067                 6.4451                 5.8543
 Frc consts  --      0.0879                 0.0938                 0.1168
 IR Inten    --      0.7401                 3.4370                10.6216

                     13                     14                     15
                      A                      A                      A
 Frequencies --    201.7721               239.7530               257.5950
 Red. masses --      5.5044                 4.0846                10.7846
 Frc consts  --      0.1320                 0.1383                 0.4216
 IR Inten    --      2.3814                 8.4646                 8.3140

                     16                     17                     18
                      A                      A                      A
 Frequencies --    262.6751               301.4942               308.1957
 Red. masses --      3.3572                 3.2395                 5.7928
 Frc consts  --      0.1365                 0.1735                 0.3242
 IR Inten    --      1.5481                 4.1352                 5.7026

                     19                     20                     21
                      A                      A                      A
 Frequencies --    331.5052               352.5092               367.6006
 Red. masses --      2.9565                 2.4303                 5.1770
 Frc consts  --      0.1914                 0.1779                 0.4122
 IR Inten    --      4.3268                 3.0919                17.9682

                     22                     23                     24
                      A                      A                      A
 Frequencies --    377.8583               390.3765               412.9174
 Red. masses --      5.1919                 3.1933                 2.9775
 Frc consts  --      0.4368                 0.2867                 0.2991
 IR Inten    --     13.1730                 8.2519                 2.5659

                     25                     26                     27
                      A                      A                      A
 Frequencies --    419.7641               435.2347               443.6689
 Red. masses --      2.9871                 3.8807                 2.3567
 Frc consts  --      0.3101                 0.4331                 0.2733
 IR Inten    --      0.9813                17.9434                41.6817

                     28                     29                     30
                      A                      A                      A
 Frequencies --    458.3983               483.9477               492.3352
 Red. masses --      3.1284                 2.8641                 2.7570
 Frc consts  --      0.3873                 0.3952                 0.3937
 IR Inten    --     82.8755                95.2782                54.9243

                     31                     32                     33
                      A                      A                      A
 Frequencies --    524.3044               549.2073               569.9417
 Red. masses --      4.4626                10.1053                 3.6784
 Frc consts  --      0.7228                 1.7959                 0.7040
 IR Inten    --     41.9990               132.1381                36.5599

                     34                     35                     36
                      A                      A                      A
 Frequencies --    585.4356               603.9989               625.7041
 Red. masses --      4.5510                 5.6454                 6.4453
 Frc consts  --      0.9190                 1.2134                 1.4867
 IR Inten    --    161.1197                47.6512                 0.3959

                     37                     38                     39
                      A                      A                      A
 Frequencies --    633.7690               697.6035               712.8480
 Red. masses --      6.3709                 2.5635                 2.6753
 Frc consts  --      1.5077                 0.7350                 0.8010
 IR Inten    --      0.1708                46.3843                 3.5595

                     40                     41                     42
                      A                      A                      A
 Frequencies --    714.8567               724.6838               749.0945
 Red. masses --      4.9714                 2.5119                 2.1659
 Frc consts  --      1.4968                 0.7772                 0.7161
 IR Inten    --     14.9772                50.3681                49.8629

                     43                     44                     45
                      A                      A                      A
 Frequencies --    752.4553               767.3666               774.0322
 Red. masses --      4.7483                 1.4557                 2.2120
 Frc consts  --      1.5840                 0.5050                 0.7808
 IR Inten    --     59.6147                43.6807                28.3485

                     46                     47                     48
                      A                      A                      A
 Frequencies --    799.7799               824.0023               848.7727
 Red. masses --      3.4989                 1.6589                 2.8700
 Frc consts  --      1.3186                 0.6636                 1.2182
 IR Inten    --     11.7821                43.1694               127.9674

                     49                     50                     51
                      A                      A                      A
 Frequencies --    862.2831               867.4696               899.3301
 Red. masses --      1.2450                 1.2485                 2.5037
 Frc consts  --      0.5454                 0.5536                 1.1931
 IR Inten    --      0.6332                 0.4305                20.6592

                     52                     53                     54
                      A                      A                      A
 Frequencies --    919.4775               946.3110               951.6834
 Red. masses --      1.4680                 2.0764                 1.3094
 Frc consts  --      0.7312                 1.0955                 0.6987
 IR Inten    --     33.6228                 1.0797                 5.5501

                     55                     56                     57
                      A                      A                      A
 Frequencies --    966.7318               979.2742               992.4259
 Red. masses --      2.4577                 1.3595                 1.3534
 Frc consts  --      1.3533                 0.7682                 0.7854
 IR Inten    --    112.1454                 2.6966                 0.5352

                     58                     59                     60
                      A                      A                      A
 Frequencies --   1000.5602              1004.8520              1013.9860
 Red. masses --      2.2815                 1.2907                 6.3540
 Frc consts  --      1.3457                 0.7679                 3.8491
 IR Inten    --     11.4104                 1.8415                10.6523

                     61                     62                     63
                      A                      A                      A
 Frequencies --   1015.7146              1021.4010              1042.4803
 Red. masses --      5.9723                 1.2847                 1.4687
 Frc consts  --      3.6303                 0.7897                 0.9404
 IR Inten    --      0.4231                 0.1273                10.7429

                     64                     65                     66
                      A                      A                      A
 Frequencies --   1045.1532              1047.9384              1059.1051
 Red. masses --      1.9094                 3.0820                 1.9817
 Frc consts  --      1.2289                 1.9941                 1.3097
 IR Inten    --     26.4599                17.3276                13.5990

                     67                     68                     69
                      A                      A                      A
 Frequencies --   1070.6139              1075.6815              1086.8334
 Red. masses --      2.4815                 2.6870                 2.8457
 Frc consts  --      1.6758                 1.8318                 1.9804
 IR Inten    --    179.1013               124.2018               154.9803

                     70                     71                     72
                      A                      A                      A
 Frequencies --   1109.7490              1117.2457              1126.0709
 Red. masses --      1.5674                 1.9847                 4.3064
 Frc consts  --      1.1373                 1.4596                 3.2174
 IR Inten    --      8.3827                34.4256               243.6607

                     73                     74                     75
                      A                      A                      A
 Frequencies --   1146.1941              1184.7995              1193.6533
 Red. masses --      2.5469                 1.0912                 1.0977
 Frc consts  --      1.9714                 0.9025                 0.9215
 IR Inten    --     38.2036                 0.2806                 0.2650

                     76                     77                     78
                      A                      A                      A
 Frequencies --   1194.7294              1204.1819              1207.2423
 Red. masses --      1.3124                 1.1638                 1.1604
 Frc consts  --      1.1037                 0.9943                 0.9964
 IR Inten    --      4.3001                 0.8113                 1.4034

                     79                     80                     81
                      A                      A                      A
 Frequencies --   1225.2733              1227.7828              1236.5226
 Red. masses --      1.5728                 2.1554                 1.8510
 Frc consts  --      1.3912                 1.9144                 1.6675
 IR Inten    --    130.3601                16.2509                26.1742

                     82                     83                     84
                      A                      A                      A
 Frequencies --   1259.5617              1274.3230              1282.1483
 Red. masses --      1.7855                 5.9748                 4.8657
 Frc consts  --      1.6689                 5.7165                 4.7128
 IR Inten    --     34.2498               391.8303               221.4085

                     85                     86                     87
                      A                      A                      A
 Frequencies --   1317.8389              1343.9018              1345.8731
 Red. masses --      1.7418                 1.4708                 2.3681
 Frc consts  --      1.7823                 1.5651                 2.5274
 IR Inten    --    109.5218                 3.2948                 1.5156

                     88                     89                     90
                      A                      A                      A
 Frequencies --   1363.4696              1363.9116              1380.9939
 Red. masses --      2.4473                 3.3900                 1.4531
 Frc consts  --      2.6806                 3.7155                 1.6328
 IR Inten    --      2.0644                 3.7432                 8.6830

                     91                     92                     93
                      A                      A                      A
 Frequencies --   1406.0933              1451.7385              1460.9460
 Red. masses --      1.4474                 1.1353                 1.1435
 Frc consts  --      1.6861                 1.4097                 1.4380
 IR Inten    --      0.7860                52.3641                50.7691

                     94                     95                     96
                      A                      A                      A
 Frequencies --   1475.9534              1491.9649              1495.8560
 Red. masses --      1.1202                 2.1648                 1.7575
 Frc consts  --      1.4378                 2.8391                 2.3171
 IR Inten    --      4.7246                24.8331                 2.0749

                     97                     98                     99
                      A                      A                      A
 Frequencies --   1503.7949              1504.9367              1523.6552
 Red. masses --      1.1272                 1.2027                 2.0501
 Frc consts  --      1.5019                 1.6049                 2.8042
 IR Inten    --     19.3842                 6.3557                 3.5942

                    100                    101                    102
                      A                      A                      A
 Frequencies --   1543.7976              1640.8362              1640.9331
 Red. masses --      2.2204                 5.5774                 5.4485
 Frc consts  --      3.1179                 8.8474                 8.6440
 IR Inten    --     19.4276                 3.4767                 1.9149

                    103                    104                    105
                      A                      A                      A
 Frequencies --   1644.3297              1660.7909              3052.1776
 Red. masses --      5.7111                 5.6616                 1.0650
 Frc consts  --      9.0981                 9.2007                 5.8454
 IR Inten    --      1.0167                12.4771                37.5156

                    106                    107                    108
                      A                      A                      A
 Frequencies --   3069.3374              3096.1589              3111.7638
 Red. masses --      1.0632                 1.0967                 1.1026
 Frc consts  --      5.9014                 6.1944                 6.2904
 IR Inten    --     15.5429                41.6539                33.3297

                    109                    110                    111
                      A                      A                      A
 Frequencies --   3141.1578              3146.4925              3192.4246
 Red. masses --      1.0577                 1.0574                 1.0859
 Frc consts  --      6.1489                 6.1677                 6.5204
 IR Inten    --      1.8313                 6.6952                16.7431

                    112                    113                    114
                      A                      A                      A
 Frequencies --   3194.6232              3204.6650              3209.8638
 Red. masses --      1.0872                 1.0900                 1.1110
 Frc consts  --      6.5373                 6.5955                 6.7442
 IR Inten    --      6.6872                17.0260                 2.2397

                    115                    116                    117
                      A                      A                      A
 Frequencies --   3210.9931              3217.1229              3223.2705
 Red. masses --      1.0941                 1.0865                 1.0977
 Frc consts  --      6.6463                 6.6252                 6.7194
 IR Inten    --     77.2368                 0.6767                31.4375

                    118                    119                    120
                      A                      A                      A
 Frequencies --   3224.9169              3225.8606              3234.6231
 Red. masses --      1.1118                 1.0896                 1.0934
 Frc consts  --      6.8123                 6.6807                 6.7404
 IR Inten    --      5.0483                18.5935                17.3123

                    121                    122                    123
                      A                      A                      A
 Frequencies --   3241.9679              3249.1794              3510.9223
 Red. masses --      1.0955                 1.0936                 1.0761
 Frc consts  --      6.7839                 6.8023                 7.8151
 IR Inten    --     10.7829                 7.0645               180.4254

 - Thermochemistry -
 -------------------
 Temperature   298.150 Kelvin.  Pressure   1.00000 Atm.
 Atom     1 has atomic number  8 and mass  15.99491

 Molecular mass:   365.07555 amu.
 Principal axes and moments of inertia in atomic units:
                           1         2         3
     Eigenvalues --  7502.052399570.46656**********
           X            0.99997  -0.00491  -0.00600
           Y            0.00479   0.99982  -0.01851
           Z            0.00609   0.01848   0.99981
 This molecule is an asymmetric top.
 Rotational symmetry number  1.
 Warning -- assumption of classical behavior for rotation
           may cause significant error
 Rotational temperatures (Kelvin)      0.01155     0.00905     0.00634
 Rotational constants (GHZ):           0.24057     0.18857     0.13200
 Zero-point vibrational energy     892096.2 (Joules/Mol)
                                  213.21610 (Kcal/Mol)
 Warning -- explicit consideration of  35 degrees of freedom as
           vibrations may cause significant error
 Vibrational temperatures:     19.36    32.56    43.63    56.04    61.35
          (Kelvin)             64.30    82.43   143.52   186.90   219.60
                              226.14   264.75   290.31   344.95   370.62
                              377.93   433.78   443.42   476.96   507.18
                              528.90   543.65   561.66   594.10   603.95
                              626.21   638.34   659.53   696.29   708.36
                              754.36   790.19   820.02   842.31   869.02
                              900.25   911.85  1003.70  1025.63  1028.52
                             1042.66  1077.78  1082.62  1104.07  1113.66
                             1150.70  1185.56  1221.19  1240.63  1248.10
                             1293.94  1322.92  1361.53  1369.26  1390.91
                             1408.96  1427.88  1439.58  1445.76  1458.90
                             1461.39  1469.57  1499.90  1503.74  1507.75
                             1523.82  1540.37  1547.67  1563.71  1596.68
                             1607.47  1620.16  1649.12  1704.66  1717.40
                             1718.95  1732.55  1736.95  1762.89  1766.51
                             1779.08  1812.23  1833.47  1844.73  1896.08
                             1933.57  1936.41  1961.73  1962.36  1986.94
                             2023.05  2088.73  2101.98  2123.57  2146.60
                             2152.20  2163.63  2165.27  2192.20  2221.18
                             2360.80  2360.94  2365.82  2389.51  4391.40
                             4416.09  4454.68  4477.13  4519.43  4527.10
                             4593.19  4596.35  4610.80  4618.28  4619.90
                             4628.72  4637.57  4639.94  4641.29  4653.90
                             4664.47  4674.84  5051.43

 Zero-point correction=                           0.339781 (Hartree/Particle)
 Thermal correction to Energy=                    0.361755
 Thermal correction to Enthalpy=                  0.362699
 Thermal correction to Gibbs Free Energy=         0.285422
 Sum of electronic and zero-point Energies=          -1810.809006
 Sum of electronic and thermal Energies=             -1810.787033
 Sum of electronic and thermal Enthalpies=           -1810.786089
 Sum of electronic and thermal Free Energies=        -1810.863366

                     E (Thermal)             CV                S
                      KCal/Mol        Cal/Mol-Kelvin    Cal/Mol-Kelvin
 Total                  227.004             85.469            162.644
 Electronic               0.000              0.000              0.000
 Translational            0.889              2.981             43.578
 Rotational               0.889              2.981             35.239
 Vibrational            225.227             79.508             83.827
 Vibration     1          0.593              1.987              7.421
 Vibration     2          0.593              1.985              6.389
 Vibration     3          0.594              1.984              5.808
 Vibration     4          0.594              1.981              5.312
 Vibration     5          0.595              1.980              5.133
 Vibration     6          0.595              1.980              5.039
 Vibration     7          0.596              1.975              4.548
 Vibration     8          0.604              1.949              3.459
 Vibration     9          0.612              1.923              2.947
 Vibration    10          0.619              1.900              2.639
 Vibration    11          0.621              1.895              2.584
 Vibration    12          0.631              1.862              2.287
 Vibration    13          0.639              1.837              2.117
 Vibration    14          0.657              1.780              1.805
 Vibration    15          0.667              1.750              1.678
 Vibration    16          0.670              1.741              1.644
 Vibration    17          0.693              1.671              1.409
 Vibration    18          0.698              1.658              1.372
 Vibration    19          0.714              1.613              1.253
 Vibration    20          0.729              1.570              1.155
 Vibration    21          0.740              1.539              1.090
 Vibration    22          0.748              1.517              1.048
 Vibration    23          0.758              1.491              0.999
 Vibration    24          0.777              1.442              0.916
 Vibration    25          0.782              1.427              0.893
 Vibration    26          0.796              1.393              0.842
 Vibration    27          0.803              1.375              0.815
 Vibration    28          0.816              1.342              0.771
 Vibration    29          0.840              1.286              0.699
 Vibration    30          0.848              1.267              0.678
 Vibration    31          0.879              1.196              0.600
 Vibration    32          0.904              1.141              0.546
 Vibration    33          0.926              1.096              0.504
 Vibration    34          0.942              1.063              0.475
 Vibration    35          0.962              1.023              0.443

                           ! Non-Optimized Parameters !
 Normal termination of Gaussian 16 at Tue Sep 22 04:39:31 2020.

 ----------------------------------------------------------------------
 #p b3lyp/6-31G(d) scrf=(iefpcm,read,solvent=water) geom=allcheck guess
 =read
 ----------------------------------------------------------------------

 Structure from the checkpoint file:  "SM39_m0.n.2.pdb.xyz.mst.n.w.chk"
 -------------------
 SM39_m0.n.2.pdb.xyz
 -------------------
 Charge =  0 Multiplicity = 1

 SCF Done:  E(RB3LYP) =  -1811.14879468     A.U. after    6 cycles
 Normal termination of Gaussian 16 at Tue Sep 22 04:40:37 2020.

 -----------------------------
 #p B3LYP/6-31G* geom=allcheck
 -----------------------------

 Structure from the checkpoint file:  "SM39_m0.n.2.pdb.xyz.mst.n.w.chk"
 -------------------
 SM39_m0.n.2.pdb.xyz
 -------------------
 Charge =  0 Multiplicity = 1

 SCF Done:  E(RB3LYP) =  -1811.11884492     A.U. after   15 cycles
 Normal termination of Gaussian 16 at Tue Sep 22 04:42:09 2020.
 Gaussian 16:  ES64L-G16RevB.01 20-Dec-2017

 ----------------------------------------------------------------------
 #p mp2/aug-cc-pVDZ scf=(MaxCycle=2000,NoVarAcc,NoIncFock) maxdisk=120G
 B geom=allcheck
 ----------------------------------------------------------------------

 Structure from the checkpoint file:  "SM39_m0.n.2.pdb.xyz.mst.n.w.chk"
 -------------------
 SM39_m0.n.2.pdb.xyz
 -------------------
 Charge =  0 Multiplicity = 1

                         Standard orientation:
 ---------------------------------------------------------------------
 Center     Atomic      Atomic             Coordinates (Angstroms)
 Number     Number       Type             X           Y           Z
 ---------------------------------------------------------------------
      1          8           0       -1.925173    0.985178    1.845710
      2         16           0       -0.483671    1.060923    1.544422
      3          7           0        0.064103   -0.359591    0.841773
      4          6           0       -0.789729   -1.320757    0.141275
      5          6           0       -1.635615   -0.683373   -1.009077
      6         16           0       -3.083752   -1.653481   -0.473957
      7          6           0       -1.995770   -1.913457    0.960373
      8          8           0       -4.283908   -0.842304   -0.196091
      9          8           0       -3.243470   -2.884733   -1.277113
     10          6           0        0.088501   -2.477407   -0.372445
     11          6           0        1.223739   -2.111581   -1.344566
     12          6           0        2.513226   -1.613887   -0.720755
     13          6           0        3.132493   -2.310250    0.327153
     14          6           0        4.343775   -1.870777    0.863571
     15          6           0        4.964306   -0.726913    0.356231
     16          6           0        4.363203   -0.028647   -0.692962
     17          6           0        3.148764   -0.471257   -1.223121
     18          6           0       -0.276696    2.306271    0.279626
     19          6           0       -1.362390    3.122334   -0.039847
     20          6           0       -1.185744    4.137587   -0.981066
     21          6           0        0.060210    4.327874   -1.579476
     22          6           0        1.140741    3.506073   -1.242053
     23          6           0        0.979086    2.488610   -0.304707
     24          8           0        0.465812    1.326389    2.636600
     25          1           0        0.745614   -0.793555    1.466213
     26          1           0       -1.307771   -0.889045   -2.027745
     27          1           0       -1.846741    0.377813   -0.883677
     28          1           0       -1.908281   -2.953893    1.270568
     29          1           0       -2.315196   -1.269515    1.777131
     30          1           0       -0.591243   -3.175715   -0.869486
     31          1           0        0.491236   -3.013094    0.493758
     32          1           0        0.870753   -1.375056   -2.074148
     33          1           0        1.448315   -3.016872   -1.921812
     34          1           0        2.666388   -3.206112    0.726386
     35          1           0        4.804397   -2.424552    1.675397
     36          1           0        5.906365   -0.385707    0.772811
     37          1           0        4.836633    0.859649   -1.099031
     38          1           0        2.684270    0.075001   -2.038950
     39          1           0       -2.320075    2.956648    0.437386
     40          1           0       -2.021320    4.776755   -1.242962
     41          1           0        0.192140    5.117333   -2.311173
     42          1           0        2.107591    3.656521   -1.709289
     43          1           0        1.808294    1.842540   -0.042983
 ---------------------------------------------------------------------

 SCF Done:  E(RHF) =  -1803.71222948     A.U. after   16 cycles
 E2 =    -0.3652493162D+01 EUMP2 =    -0.18073647226370D+04

 The electronic state is 1-A.
 Alpha  occ. eigenvalues --  -92.24028 -92.19701 -20.57231 -20.56882 -20.55694
 Alpha  occ. eigenvalues --  -20.55509 -15.62938 -11.34438 -11.29908 -11.29588
 Alpha  occ. eigenvalues --  -11.28676 -11.28416 -11.28269 -11.28018 -11.27450
 Alpha  occ. eigenvalues --  -11.27261 -11.27077 -11.26891 -11.26450 -11.26108
 Alpha  occ. eigenvalues --  -11.26081 -11.25708 -11.25654 -11.25588  -9.20812
 Alpha  occ. eigenvalues --   -9.16971  -6.89351  -6.89308  -6.89194  -6.85461
 Alpha  occ. eigenvalues --   -6.85370  -6.85303  -1.46996  -1.43815  -1.34871
 Alpha  occ. eigenvalues --   -1.32533  -1.27231  -1.19440  -1.17576  -1.15118
 Alpha  occ. eigenvalues --   -1.08979  -1.07018  -1.05458  -1.03383  -1.02166
 Alpha  occ. eigenvalues --   -0.98495  -0.94777  -0.91342  -0.86756  -0.86169
 Alpha  occ. eigenvalues --   -0.84515  -0.82888  -0.81292  -0.78703  -0.75377
 Alpha  occ. eigenvalues --   -0.72532  -0.71745  -0.71468  -0.69324  -0.68772
 Alpha  occ. eigenvalues --   -0.66945  -0.66663  -0.65686  -0.64966  -0.64833
 Alpha  occ. eigenvalues --   -0.64185  -0.63066  -0.62470  -0.62244  -0.62098
 Alpha  occ. eigenvalues --   -0.60821  -0.60233  -0.59247  -0.57448  -0.55775
 Alpha  occ. eigenvalues --   -0.55606  -0.54747  -0.54008  -0.53234  -0.53028
 Alpha  occ. eigenvalues --   -0.51338  -0.50684  -0.50441  -0.50143  -0.49570
 Alpha  occ. eigenvalues --   -0.48418  -0.48135  -0.47505  -0.46851  -0.45990
 Alpha  occ. eigenvalues --   -0.44702  -0.41844  -0.37645  -0.36957  -0.35485
 Alpha  occ. eigenvalues --   -0.34314
 Alpha virt. eigenvalues --    0.02150   0.02709   0.03228   0.03524   0.04092
 Alpha virt. eigenvalues --    0.04633   0.04911   0.05368   0.05890   0.06114
 Alpha virt. eigenvalues --    0.06494   0.07008   0.07093   0.07380   0.07894

 Mulliken charges:
               1
     1  O   -1.287519
     2  S    2.803217
     3  N   -0.869941
     4  C   -0.063194
     5  C    0.444981
     6  S    2.960126
     7  C    0.417220
     8  O   -1.264284
     9  O   -1.280484
    10  C    0.836373
    11  C    0.344417
    12  C    0.468274
    13  C    0.697095
    14  C    0.165557
    15  C    0.661926
    16  C    0.187853
    17  C    0.858343
    18  C    0.512289
    19  C    0.522343
    20  C    0.374057
    21  C    0.612447
    22  C    0.256957
    23  C    0.663696
    24  O   -1.171452
    25  H   -0.092682
    26  H   -0.298352
    27  H   -0.372695
    28  H   -0.336981
    29  H   -0.282451
    30  H   -0.100296
    31  H   -0.183580
    32  H   -0.374272
    33  H   -0.052466
    34  H   -0.727914
    35  H   -0.518436
    36  H   -0.472772
    37  H   -0.529195
    38  H   -0.728170
    39  H   -0.653185
    40  H   -0.469822
    41  H   -0.463215
    42  H   -0.529361
    43  H   -0.664455
 Sum of Mulliken charges =  -0.00000

 Dipole moment (field-independent basis, Debye):
    X=              7.0998    Y=              1.4312    Z=             -2.9742  Tot=              7.8296
 Quadrupole moment (field-independent basis, Debye-Ang):
   XX=           -182.6379   YY=           -145.2255   ZZ=           -165.2165
   XY=            -11.7056   XZ=             -3.4608   YZ=            -24.1755

 Normal termination of Gaussian 16 at Tue Sep 22 07:33:01 2020.
