 Gaussian 16, Revision B.01,

 ----------------------------------------------------------------------
 #p b3lyp/6-31G(d) opt freq NoSymm scf=(MaxCycle=2000,NoVarAcc,NoIncFoc
 k) scrf=(iefpcm,read,solvent=water)
 ----------------------------------------------------------------------

 --------------------
 SM39_m0.n.13.pdb.xyz
 --------------------
 Symbolic Z-matrix:
 Charge =  0 Multiplicity = 1

 SCF Done:  E(RB3LYP) =  -1811.15076601     A.U. after   13 cycles
 SCF Done:  E(RB3LYP) =  -1811.15044641     A.U. after   10 cycles
 SCF Done:  E(RB3LYP) =  -1811.15063177     A.U. after    9 cycles
 SCF Done:  E(RB3LYP) =  -1811.15075860     A.U. after   10 cycles
 SCF Done:  E(RB3LYP) =  -1811.15060279     A.U. after   10 cycles
 SCF Done:  E(RB3LYP) =  -1811.15075722     A.U. after   10 cycles
 SCF Done:  E(RB3LYP) =  -1811.15061600     A.U. after   10 cycles
 SCF Done:  E(RB3LYP) =  -1811.15075792     A.U. after   10 cycles
 SCF Done:  E(RB3LYP) =  -1811.15062159     A.U. after   10 cycles
 SCF Done:  E(RB3LYP) =  -1811.15075808     A.U. after   10 cycles
 SCF Done:  E(RB3LYP) =  -1811.15074850     A.U. after    2 cycles
 SCF Done:  E(RB3LYP) =  -1811.15061543     A.U. after   10 cycles
 SCF Done:  E(RB3LYP) =  -1811.15061642     A.U. after    7 cycles
 SCF Done:  E(RB3LYP) =  -1811.15061763     A.U. after    7 cycles
 SCF Done:  E(RB3LYP) =  -1811.15061832     A.U. after    7 cycles
 SCF Done:  E(RB3LYP) =  -1811.15061805     A.U. after    6 cycles
 Optimization completed.
    -- Stationary point found.
 Normal termination of Gaussian 16 at Tue Sep 22 04:26:14 2020.

 --------------------------------------------------------------------
 #P Geom=AllCheck Guess=TCheck SCRF=Check GenChk RB3LYP/6-31G(d) Freq
 --------------------------------------------------------------------

 Structure from the checkpoint file:  "SM39_m0.n.13.pdb.xyz.mst.n.w.chk"
 --------------------
 SM39_m0.n.13.pdb.xyz
 --------------------
 Charge =  0 Multiplicity = 1

 SCF Done:  E(RB3LYP) =  -1811.15061805     A.U. after    1 cycles

  Exact polarizability: 332.410  10.346 320.675  -8.193  28.453 227.014
 Approx polarizability: 365.793  20.282 376.490  -2.021  29.697 265.014

 ******    1 imaginary frequencies (negative Signs) ******

                      1                      2                      3
                      A                      A                      A
 Frequencies --     -8.1469                11.4793                18.7116
 Red. masses --      3.7813                 5.8831                 6.4819
 Frc consts  --      0.0001                 0.0005                 0.0013
 IR Inten    --      0.1999                 0.4278                 2.4846

                      4                      5                      6
                      A                      A                      A
 Frequencies --     31.9515                33.9195                44.1775
 Red. masses --      4.8724                 4.8066                 4.9549
 Frc consts  --      0.0029                 0.0033                 0.0057
 IR Inten    --      0.4691                 0.4607                 2.3639

                      7                      8                      9
                      A                      A                      A
 Frequencies --     53.6416                88.9380               129.0191
 Red. masses --      7.1782                 4.4227                 6.4028
 Frc consts  --      0.0122                 0.0206                 0.0628
 IR Inten    --      6.4730                 0.3662                 1.9170

                     10                     11                     12
                      A                      A                      A
 Frequencies --    131.4485               152.8031               162.7953
 Red. masses --      6.0699                 5.4908                 6.5865
 Frc consts  --      0.0618                 0.0755                 0.1028
 IR Inten    --      4.9446                11.4722                 2.5215

                     13                     14                     15
                      A                      A                      A
 Frequencies --    198.5925               231.9527               256.2212
 Red. masses --      5.1646                 3.7958                 6.0859
 Frc consts  --      0.1200                 0.1203                 0.2354
 IR Inten    --      6.9772                 2.0681                 7.6085

                     16                     17                     18
                      A                      A                      A
 Frequencies --    265.7324               272.8999               306.6074
 Red. masses --      4.2964                 3.5161                 7.4003
 Frc consts  --      0.1788                 0.1543                 0.4099
 IR Inten    --      3.0524                 3.6431                 9.7332

                     19                     20                     21
                      A                      A                      A
 Frequencies --    320.7969               329.6617               357.8303
 Red. masses --      2.7092                 3.5793                 3.1320
 Frc consts  --      0.1643                 0.2292                 0.2363
 IR Inten    --      0.8906                13.9148                 8.0660

                     22                     23                     24
                      A                      A                      A
 Frequencies --    372.2198               383.4902               401.2566
 Red. masses --      3.0364                 4.3286                 5.1725
 Frc consts  --      0.2479                 0.3751                 0.4907
 IR Inten    --      7.0503                 2.9171                13.3724

                     25                     26                     27
                      A                      A                      A
 Frequencies --    412.6471               417.8918               449.1735
 Red. masses --      2.9739                 2.9650                 4.8457
 Frc consts  --      0.2984                 0.3051                 0.5760
 IR Inten    --      0.6834                 0.0137                41.4245

                     28                     29                     30
                      A                      A                      A
 Frequencies --    476.7593               482.3492               511.9961
 Red. masses --      2.6941                 4.1150                 2.8429
 Frc consts  --      0.3608                 0.5641                 0.4391
 IR Inten    --     57.4939                19.9847               102.1919

                     31                     32                     33
                      A                      A                      A
 Frequencies --    518.3024               558.9904               569.7894
 Red. masses --      3.2192                 8.0446                 7.7446
 Frc consts  --      0.5095                 1.4810                 1.4814
 IR Inten    --     33.9514               132.4105               171.1277

                     34                     35                     36
                      A                      A                      A
 Frequencies --    605.3405               613.0244               625.4572
 Red. masses --      4.6935                 4.2905                 6.4279
 Frc consts  --      1.0133                 0.9500                 1.4815
 IR Inten    --     86.1797                55.3200                 1.4357

                     37                     38                     39
                      A                      A                      A
 Frequencies --    634.7206               697.8713               714.6091
 Red. masses --      6.3128                 2.4714                 1.9424
 Frc consts  --      1.4984                 0.7091                 0.5844
 IR Inten    --      0.2014                45.6221                33.2798

                     40                     41                     42
                      A                      A                      A
 Frequencies --    716.5586               726.4983               753.1385
 Red. masses --      5.0795                 2.6003                 5.8650
 Frc consts  --      1.5367                 0.8086                 1.9601
 IR Inten    --     21.2052                 4.1395               104.7397

                     43                     44                     45
                      A                      A                      A
 Frequencies --    762.7366               768.9067               774.2392
 Red. masses --      1.6487                 1.4909                 1.5577
 Frc consts  --      0.5651                 0.5193                 0.5501
 IR Inten    --     16.8448                37.9458                27.1994

                     46                     47                     48
                      A                      A                      A
 Frequencies --    810.1759               826.2561               844.1858
 Red. masses --      3.8903                 1.8011                 3.0124
 Frc consts  --      1.5045                 0.7245                 1.2648
 IR Inten    --      3.3420                46.4688                20.5497

                     49                     50                     51
                      A                      A                      A
 Frequencies --    862.6311               864.7145               878.4682
 Red. masses --      1.2482                 1.2576                 3.1012
 Frc consts  --      0.5472                 0.5540                 1.4100
 IR Inten    --      0.9323                 1.4674               137.9700

                     52                     53                     54
                      A                      A                      A
 Frequencies --    913.2571               932.7826               952.3724
 Red. masses --      2.0855                 1.5567                 1.3135
 Frc consts  --      1.0248                 0.7980                 0.7019
 IR Inten    --     12.2330                 4.8248                 2.6511

                     55                     56                     57
                      A                      A                      A
 Frequencies --    976.7362               980.8124               993.4187
 Red. masses --      1.4062                 2.4125                 1.3539
 Frc consts  --      0.7904                 1.3674                 0.7872
 IR Inten    --      8.7838               107.3247                 0.6129

                     58                     59                     60
                      A                      A                      A
 Frequencies --   1001.8851              1014.0463              1015.0603
 Red. masses --      1.2718                 6.1052                 2.1772
 Frc consts  --      0.7521                 3.6988                 1.3217
 IR Inten    --      0.2952                10.2019                 8.3827

                     61                     62                     63
                      A                      A                      A
 Frequencies --   1017.2540              1023.1378              1046.8742
 Red. masses --      5.1476                 1.2876                 1.8095
 Frc consts  --      3.1384                 0.7941                 1.1684
 IR Inten    --      0.6658                 0.1722                19.9394

                     64                     65                     66
                      A                      A                      A
 Frequencies --   1048.2583              1050.3993              1055.2771
 Red. masses --      2.7990                 1.8651                 2.1848
 Frc consts  --      1.8121                 1.2124                 1.4335
 IR Inten    --     15.6405                27.2789                 6.9056

                     67                     68                     69
                      A                      A                      A
 Frequencies --   1073.2176              1078.4946              1093.0182
 Red. masses --      1.7882                 2.9530                 3.7227
 Frc consts  --      1.2135                 2.0237                 2.6203
 IR Inten    --    153.1918               113.8715               162.8950

                     70                     71                     72
                      A                      A                      A
 Frequencies --   1111.4078              1115.4185              1127.9047
 Red. masses --      1.5979                 1.8203                 4.1652
 Frc consts  --      1.1629                 1.3344                 3.1220
 IR Inten    --     11.3076                13.7748               250.1427

                     73                     74                     75
                      A                      A                      A
 Frequencies --   1149.0878              1185.5119              1198.0392
 Red. masses --      2.2457                 1.0887                 1.1029
 Frc consts  --      1.7471                 0.9015                 0.9327
 IR Inten    --     62.5749                 0.0835                 0.2544

                     76                     77                     78
                      A                      A                      A
 Frequencies --   1203.0876              1203.6119              1204.9984
 Red. masses --      1.2974                 1.1338                 1.1794
 Frc consts  --      1.1064                 0.9678                 1.0090
 IR Inten    --      4.4250                 0.3681                 2.4503

                     79                     80                     81
                      A                      A                      A
 Frequencies --   1215.0794              1231.5084              1248.9403
 Red. masses --      1.6003                 2.4506                 2.7962
 Frc consts  --      1.3921                 2.1898                 2.5698
 IR Inten    --     38.1485                 8.6990                94.0548

                     82                     83                     84
                      A                      A                      A
 Frequencies --   1268.9044              1277.9389              1287.1124
 Red. masses --      3.7239                 3.7782                 2.5133
 Frc consts  --      3.5327                 3.6354                 2.4532
 IR Inten    --    273.9172               383.9719                66.2736

                     85                     86                     87
                      A                      A                      A
 Frequencies --   1311.4341              1343.0386              1344.9694
 Red. masses --      1.5044                 1.4786                 1.4316
 Frc consts  --      1.5244                 1.5714                 1.5258
 IR Inten    --      8.7993                 3.2052                28.3213

                     88                     89                     90
                      A                      A                      A
 Frequencies --   1360.5312              1364.8244              1366.0957
 Red. masses --      3.3773                 1.4167                 4.1026
 Frc consts  --      3.6833                 1.5548                 4.5110
 IR Inten    --      0.3946                 6.5525                 6.0908

                     91                     92                     93
                      A                      A                      A
 Frequencies --   1398.3766              1457.3162              1462.3475
 Red. masses --      1.5050                 1.1013                 1.2029
 Frc consts  --      1.7340                 1.3780                 1.5156
 IR Inten    --      9.1964                31.3793                89.7036

                     94                     95                     96
                      A                      A                      A
 Frequencies --   1475.1055              1494.3441              1495.0973
 Red. masses --      1.1267                 1.2505                 1.7823
 Frc consts  --      1.4445                 1.6453                 2.3474
 IR Inten    --     17.6038                 6.7389                22.3783

                     97                     98                     99
                      A                      A                      A
 Frequencies --   1498.4054              1512.0965              1523.5237
 Red. masses --      2.0628                 1.1029                 2.0600
 Frc consts  --      2.7287                 1.4857                 2.8171
 IR Inten    --      5.7424                 6.2709                 4.0804

                    100                    101                    102
                      A                      A                      A
 Frequencies --   1543.8158              1642.2780              1643.5472
 Red. masses --      2.2634                 5.5976                 5.5216
 Frc consts  --      3.1784                 8.8950                 8.7878
 IR Inten    --     19.8758                 1.3650                 3.8038

                    103                    104                    105
                      A                      A                      A
 Frequencies --   1645.2664              1663.2191              3060.5036
 Red. masses --      5.7132                 5.7337                 1.0588
 Frc consts  --      9.1118                 9.3452                 5.8433
 IR Inten    --      0.3938                 9.1654                36.8188

                    106                    107                    108
                      A                      A                      A
 Frequencies --   3077.8355              3100.3646              3127.1360
 Red. masses --      1.0599                 1.1038                 1.1058
 Frc consts  --      5.9155                 6.2512                 6.3713
 IR Inten    --     33.1314                18.6262                45.3230

                    109                    110                    111
                      A                      A                      A
 Frequencies --   3147.0612              3150.8694              3189.5201
 Red. masses --      1.0573                 1.0569                 1.0876
 Frc consts  --      6.1694                 6.1820                 6.5188
 IR Inten    --      1.5063                 5.0713                18.3089

                    112                    113                    114
                      A                      A                      A
 Frequencies --   3192.3423              3203.8818              3211.8696
 Red. masses --      1.0870                 1.0894                 1.0937
 Frc consts  --      6.5266                 6.5889                 6.6478
 IR Inten    --     11.8973                11.9868                70.8173

                    115                    116                    117
                      A                      A                      A
 Frequencies --   3218.9997              3219.2745              3224.1405
 Red. masses --      1.1115                 1.0867                 1.0977
 Frc consts  --      6.7860                 6.6355                 6.7228
 IR Inten    --      1.8911                 0.6883                33.2611

                    118                    119                    120
                      A                      A                      A
 Frequencies --   3227.0922              3228.3245              3237.3183
 Red. masses --      1.1119                 1.0896                 1.0935
 Frc consts  --      6.8222                 6.6910                 6.7520
 IR Inten    --      3.0614                15.7616                21.9247

                    121                    122                    123
                      A                      A                      A
 Frequencies --   3244.8500              3250.8555              3495.4637
 Red. masses --      1.0948                 1.0941                 1.0756
 Frc consts  --      6.7917                 6.8125                 7.7433
 IR Inten    --      9.0516                 7.6735               156.8346

 - Thermochemistry -
 -------------------
 Temperature   298.150 Kelvin.  Pressure   1.00000 Atm.
 Atom     1 has atomic number  8 and mass  15.99491

 Molecular mass:   365.07555 amu.
 Principal axes and moments of inertia in atomic units:
                           1         2         3
     Eigenvalues --  6113.31964********************
           X            0.99997  -0.00048  -0.00727
           Y            0.00065   0.99970   0.02468
           Z            0.00725  -0.02468   0.99967
 This molecule is an asymmetric top.
 Rotational symmetry number  1.
 Warning -- assumption of classical behavior for rotation
           may cause significant error
 Rotational temperatures (Kelvin)      0.01417     0.00572     0.00477
 Rotational constants (GHZ):           0.29521     0.11919     0.09945
    1 imaginary frequencies ignored.
 Zero-point vibrational energy     891707.0 (Joules/Mol)
                                  213.12309 (Kcal/Mol)
 Warning -- explicit consideration of  34 degrees of freedom as
           vibrations may cause significant error
 Vibrational temperatures:     16.52    26.92    45.97    48.80    63.56
          (Kelvin)             77.18   127.96   185.63   189.13   219.85
                              234.23   285.73   333.73   368.65   382.33
                              392.64   441.14   461.56   474.31   514.84
                              535.54   551.76   577.32   593.71   601.25
                              646.26   685.95   693.99   736.65   745.72
                              804.26   819.80   870.95   882.01   899.89
                              913.22  1004.08  1028.16  1030.97  1045.27
                             1083.60  1097.41  1106.29  1113.96  1165.66
                             1188.80  1214.60  1241.13  1244.13  1263.92
                             1313.97  1342.07  1370.25  1405.31  1411.17
                             1429.31  1441.49  1458.99  1460.45  1463.60
                             1472.07  1506.22  1508.21  1511.29  1518.31
                             1544.12  1551.71  1572.61  1599.07  1604.84
                             1622.80  1653.28  1705.69  1723.71  1730.97
                             1731.73  1733.72  1748.23  1771.87  1796.95
                             1825.67  1838.67  1851.87  1886.86  1932.33
                             1935.11  1957.50  1963.68  1965.51  2011.95
                             2096.75  2103.99  2122.35  2150.03  2151.11
                             2155.87  2175.57  2192.01  2221.21  2362.87
                             2364.70  2367.17  2393.00  4403.38  4428.32
                             4460.73  4499.25  4527.92  4533.40  4589.01
                             4593.07  4609.67  4621.16  4631.42  4631.82
                             4638.82  4643.07  4644.84  4657.78  4668.62
                             4677.26  5029.19

 Zero-point correction=                           0.339633 (Hartree/Particle)
 Thermal correction to Energy=                    0.360976
 Thermal correction to Enthalpy=                  0.361920
 Thermal correction to Gibbs Free Energy=         0.285755
 Sum of electronic and zero-point Energies=          -1810.810985
 Sum of electronic and thermal Energies=             -1810.789642
 Sum of electronic and thermal Enthalpies=           -1810.788698
 Sum of electronic and thermal Free Energies=        -1810.864863

                     E (Thermal)             CV                S
                      KCal/Mol        Cal/Mol-Kelvin    Cal/Mol-Kelvin
 Total                  226.516             83.597            160.303
 Electronic               0.000              0.000              0.000
 Translational            0.889              2.981             43.578
 Rotational               0.889              2.981             35.772
 Vibrational            224.738             77.636             80.953
 Vibration     1          0.593              1.987              7.737
 Vibration     2          0.593              1.986              6.766
 Vibration     3          0.594              1.983              5.704
 Vibration     4          0.594              1.983              5.586
 Vibration     5          0.595              1.980              5.062
 Vibration     6          0.596              1.976              4.678
 Vibration     7          0.602              1.957              3.683
 Vibration     8          0.612              1.924              2.961
 Vibration     9          0.612              1.922              2.925
 Vibration    10          0.619              1.900              2.637
 Vibration    11          0.623              1.888              2.517
 Vibration    12          0.637              1.842              2.146
 Vibration    13          0.653              1.792              1.864
 Vibration    14          0.666              1.752              1.687
 Vibration    15          0.672              1.736              1.624
 Vibration    16          0.676              1.723              1.578
 Vibration    17          0.697              1.661              1.381
 Vibration    18          0.706              1.634              1.306
 Vibration    19          0.712              1.616              1.262
 Vibration    20          0.733              1.559              1.132
 Vibration    21          0.744              1.529              1.071
 Vibration    22          0.753              1.505              1.025
 Vibration    23          0.767              1.467              0.958
 Vibration    24          0.776              1.443              0.917
 Vibration    25          0.781              1.431              0.899
 Vibration    26          0.808              1.363              0.798
 Vibration    27          0.833              1.302              0.719
 Vibration    28          0.839              1.289              0.704
 Vibration    29          0.867              1.223              0.629
 Vibration    30          0.873              1.209              0.614
 Vibration    31          0.915              1.120              0.526
 Vibration    32          0.926              1.097              0.505
 Vibration    33          0.964              1.020              0.441
 Vibration    34          0.972              1.004              0.428

                           ! Non-Optimized Parameters !
 Normal termination of Gaussian 16 at Tue Sep 22 04:51:10 2020.

 ----------------------------------------------------------------------
 #p b3lyp/6-31G(d) scrf=(iefpcm,read,solvent=water) geom=allcheck guess
 =read
 ----------------------------------------------------------------------

 Structure from the checkpoint file:  "SM39_m0.n.13.pdb.xyz.mst.n.w.chk"
 --------------------
 SM39_m0.n.13.pdb.xyz
 --------------------
 Charge =  0 Multiplicity = 1

 SCF Done:  E(RB3LYP) =  -1811.15061875     A.U. after    3 cycles
 Normal termination of Gaussian 16 at Tue Sep 22 04:51:47 2020.

 -----------------------------
 #p B3LYP/6-31G* geom=allcheck
 -----------------------------

 Structure from the checkpoint file:  "SM39_m0.n.13.pdb.xyz.mst.n.w.chk"
 --------------------
 SM39_m0.n.13.pdb.xyz
 --------------------
 Charge =  0 Multiplicity = 1

 SCF Done:  E(RB3LYP) =  -1811.12010882     A.U. after   15 cycles
 Normal termination of Gaussian 16 at Tue Sep 22 04:53:11 2020.
 Gaussian 16:  ES64L-G16RevB.01 20-Dec-2017

 ----------------------------------------------------------------------
 #p mp2/aug-cc-pVDZ scf=(MaxCycle=2000,NoVarAcc,NoIncFock) maxdisk=120G
 B geom=allcheck
 ----------------------------------------------------------------------

 Structure from the checkpoint file:  "SM39_m0.n.13.pdb.xyz.mst.n.w.chk"
 --------------------
 SM39_m0.n.13.pdb.xyz
 --------------------
 Charge =  0 Multiplicity = 1

                         Standard orientation:
 ---------------------------------------------------------------------
 Center     Atomic      Atomic             Coordinates (Angstroms)
 Number     Number       Type             X           Y           Z
 ---------------------------------------------------------------------
      1          8           0        2.573585    1.081421    1.495924
      2         16           0        2.143076   -0.326419    1.417521
      3          7           0        0.538364   -0.448884    0.936327
      4          6           0       -0.158595    0.608263    0.191625
      5          6           0        0.633076    1.132681   -1.050932
      6         16           0        0.191241    2.844895   -0.597447
      7          6           0       -0.299473    1.988505    0.930430
      8          8           0        1.348018    3.747983   -0.450967
      9          8           0       -0.979151    3.326550   -1.361268
     10          6           0       -1.523790    0.055446   -0.256767
     11          6           0       -2.472637   -0.362559    0.880552
     12          6           0       -3.832918   -0.767573    0.354955
     13          6           0       -4.116052   -2.107856    0.062060
     14          6           0       -5.360031   -2.482222   -0.449012
     15          6           0       -6.343640   -1.517184   -0.674401
     16          6           0       -6.073754   -0.177736   -0.384628
     17          6           0       -4.828553    0.191431    0.125488
     18          6           0        3.058393   -1.089094    0.088686
     19          6           0        2.671517   -2.342262   -0.393437
     20          6           0        3.450666   -2.949787   -1.375043
     21          6           0        4.598658   -2.312251   -1.855719
     22          6           0        4.973537   -1.063560   -1.359047
     23          6           0        4.203497   -0.442394   -0.376425
     24          8           0        2.238192   -1.169214    2.620135
     25          1           0        0.005838   -0.788875    1.740118
     26          1           0        0.259676    0.817246   -2.023819
     27          1           0        1.713456    1.013358   -0.990689
     28          1           0       -1.290697    2.256000    1.293857
     29          1           0        0.466702    2.142349    1.688114
     30          1           0       -1.340804   -0.796442   -0.919015
     31          1           0       -2.007704    0.832221   -0.857574
     32          1           0       -2.583664    0.467600    1.586895
     33          1           0       -2.045054   -1.203865    1.434577
     34          1           0       -3.356123   -2.863479    0.241459
     35          1           0       -5.561526   -3.526500   -0.666222
     36          1           0       -7.312615   -1.806246   -1.068131
     37          1           0       -6.833848    0.579103   -0.551190
     38          1           0       -4.627427    1.234340    0.353641
     39          1           0        1.775634   -2.823049   -0.019499
     40          1           0        3.161153   -3.918658   -1.765935
     41          1           0        5.199806   -2.790957   -2.620809
     42          1           0        5.863229   -0.570640   -1.733720
     43          1           0        4.471811    0.528052    0.021565
 ---------------------------------------------------------------------

 SCF Done:  E(RHF) =  -1803.71492117     A.U. after   16 cycles
 E2 =    -0.3645974029D+01 EUMP2 =    -0.18073608951969D+04

 The electronic state is 1-A.
 Alpha  occ. eigenvalues --  -92.24315 -92.19788 -20.57528 -20.57286 -20.55736
 Alpha  occ. eigenvalues --  -20.55537 -15.63581 -11.34479 -11.30268 -11.29621
 Alpha  occ. eigenvalues --  -11.28973 -11.28909 -11.28534 -11.28254 -11.27743
 Alpha  occ. eigenvalues --  -11.27537 -11.26705 -11.26594 -11.26364 -11.25461
 Alpha  occ. eigenvalues --  -11.25387 -11.25256 -11.25143 -11.25072  -9.21129
 Alpha  occ. eigenvalues --   -9.17047  -6.89662  -6.89621  -6.89512  -6.85537
 Alpha  occ. eigenvalues --   -6.85447  -6.85382  -1.47378  -1.43858  -1.35197
 Alpha  occ. eigenvalues --   -1.32567  -1.27604  -1.19791  -1.17172  -1.15194
 Alpha  occ. eigenvalues --   -1.08955  -1.07355  -1.05800  -1.02770  -1.01827
 Alpha  occ. eigenvalues --   -0.98620  -0.94706  -0.91564  -0.87043  -0.85618
 Alpha  occ. eigenvalues --   -0.84170  -0.83136  -0.81027  -0.78782  -0.75545
 Alpha  occ. eigenvalues --   -0.73319  -0.71883  -0.70761  -0.69329  -0.68459
 Alpha  occ. eigenvalues --   -0.67662  -0.67035  -0.65658  -0.65313  -0.64962
 Alpha  occ. eigenvalues --   -0.64408  -0.63105  -0.62765  -0.62234  -0.61295
 Alpha  occ. eigenvalues --   -0.60613  -0.59661  -0.59182  -0.57270  -0.56173
 Alpha  occ. eigenvalues --   -0.55699  -0.54845  -0.53947  -0.53466  -0.52682
 Alpha  occ. eigenvalues --   -0.51749  -0.50807  -0.50117  -0.49915  -0.49491
 Alpha  occ. eigenvalues --   -0.48550  -0.48343  -0.47763  -0.47103  -0.46107
 Alpha  occ. eigenvalues --   -0.44695  -0.42075  -0.37934  -0.37274  -0.34791
 Alpha  occ. eigenvalues --   -0.34031
 Alpha virt. eigenvalues --    0.02009   0.02818   0.03385   0.03633   0.04017
 Alpha virt. eigenvalues --    0.04395   0.04814   0.05381   0.05410   0.06027
 Alpha virt. eigenvalues --    0.06469   0.06768   0.06853   0.07407   0.07757

 Mulliken charges:
               1
     1  O   -1.289048
     2  S    2.794396
     3  N   -1.181398
     4  C    0.738251
     5  C    0.106712
     6  S    2.943801
     7  C    0.217354
     8  O   -1.256362
     9  O   -1.280063
    10  C    0.412377
    11  C    0.850331
    12  C    1.194294
    13  C    0.565067
    14  C    0.028828
    15  C    0.652399
    16  C    0.047681
    17  C    0.403353
    18  C    0.689234
    19  C    0.524872
    20  C    0.281079
    21  C    0.730356
    22  C    0.363829
    23  C    0.335745
    24  O   -1.196649
    25  H   -0.059538
    26  H   -0.302997
    27  H   -0.294439
    28  H   -0.307836
    29  H   -0.294969
    30  H   -0.225669
    31  H   -0.136405
    32  H   -0.277462
    33  H   -0.337874
    34  H   -0.671685
    35  H   -0.465494
    36  H   -0.435420
    37  H   -0.466714
    38  H   -0.673032
    39  H   -0.712058
    40  H   -0.478305
    41  H   -0.439846
    42  H   -0.454498
    43  H   -0.642199
 Sum of Mulliken charges =  -0.00000

 Dipole moment (field-independent basis, Debye):
    X=             -1.2708    Y=             -7.1257    Z=             -2.3987  Tot=              7.6252
 Quadrupole moment (field-independent basis, Debye-Ang):
   XX=           -142.3899   YY=           -175.9893   ZZ=           -166.8919
   XY=             -8.0800   XZ=            -19.7379   YZ=             17.3648

 Normal termination of Gaussian 16 at Tue Sep 22 06:34:17 2020.
