 Gaussian 16, Revision B.01,

 ----------------------------------------------------------------------
 #p b3lyp/6-31G(d) opt freq NoSymm scf=(MaxCycle=2000,NoVarAcc,NoIncFoc
 k) scrf=(iefpcm,read,solvent=water)
 ----------------------------------------------------------------------

 -----------------
 SM40.a.15.pdb.xyz
 -----------------
 Symbolic Z-matrix:
 Charge = -1 Multiplicity = 1

 SCF Done:  E(RB3LYP) =  -1713.58847652     A.U. after   13 cycles
 SCF Done:  E(RB3LYP) =  -1713.58755479     A.U. after   11 cycles
 SCF Done:  E(RB3LYP) =  -1713.58678181     A.U. after   11 cycles
 SCF Done:  E(RB3LYP) =  -1713.58812419     A.U. after   12 cycles
 SCF Done:  E(RB3LYP) =  -1713.58817341     A.U. after   10 cycles
 SCF Done:  E(RB3LYP) =  -1713.58814736     A.U. after    8 cycles
 SCF Done:  E(RB3LYP) =  -1713.58812090     A.U. after    8 cycles
 SCF Done:  E(RB3LYP) =  -1713.58813473     A.U. after    8 cycles
 SCF Done:  E(RB3LYP) =  -1713.58814683     A.U. after    9 cycles
 Optimization completed.
    -- Stationary point found.
 Normal termination of Gaussian 16 at Thu Sep 24 01:39:34 2020.

 --------------------------------------------------------------------
 #P Geom=AllCheck Guess=TCheck SCRF=Check GenChk RB3LYP/6-31G(d) Freq
 --------------------------------------------------------------------

 Structure from the checkpoint file:  "SM40.a.15.pdb.xyz.mst.a.w.chk"
 -----------------
 SM40.a.15.pdb.xyz
 -----------------
 Charge = -1 Multiplicity = 1

 SCF Done:  E(RB3LYP) =  -1713.58814683     A.U. after    1 cycles

  Exact polarizability: 300.799  -9.341 252.550  -1.270  37.826 214.703
 Approx polarizability: 329.298  -5.521 275.509   0.864  47.560 250.972

 ******    1 imaginary frequencies (negative Signs) ******

                      1                      2                      3
                      A                      A                      A
 Frequencies --    -27.4751                24.8133                27.1229
 Red. masses --      3.5360                 4.6868                 4.1277
 Frc consts  --      0.0016                 0.0017                 0.0018
 IR Inten    --      1.2975                 0.0650                 1.3323

                      4                      5                      6
                      A                      A                      A
 Frequencies --     33.8624                43.7401                47.0853
 Red. masses --      4.2079                 8.0208                 3.8914
 Frc consts  --      0.0028                 0.0090                 0.0051
 IR Inten    --      3.1965                 5.2974                 2.1618

                      7                      8                      9
                      A                      A                      A
 Frequencies --     88.0871               104.8295               133.2989
 Red. masses --      4.3071                 5.1850                 6.2507
 Frc consts  --      0.0197                 0.0336                 0.0654
 IR Inten    --      1.4913                 3.3097                 1.6541

                     10                     11                     12
                      A                      A                      A
 Frequencies --    145.7868               182.3992               189.3438
 Red. masses --      3.4669                 2.4431                 1.8122
 Frc consts  --      0.0434                 0.0479                 0.0383
 IR Inten    --     14.0606                19.3651                 3.9273

                     13                     14                     15
                      A                      A                      A
 Frequencies --    199.0960               210.1470               227.1652
 Red. masses --      2.1759                 2.1934                 2.8654
 Frc consts  --      0.0508                 0.0571                 0.0871
 IR Inten    --      2.0846                 1.5064                 9.8054

                     16                     17                     18
                      A                      A                      A
 Frequencies --    236.6934               279.4036               291.9474
 Red. masses --      3.5623                 3.4846                 3.3810
 Frc consts  --      0.1176                 0.1603                 0.1698
 IR Inten    --      5.8947                 8.6928                 1.1027

                     19                     20                     21
                      A                      A                      A
 Frequencies --    325.6220               331.8412               350.2883
 Red. masses --      3.4978                 2.7926                 2.6805
 Frc consts  --      0.2185                 0.1812                 0.1938
 IR Inten    --     34.4381                14.2953                 3.3298

                     22                     23                     24
                      A                      A                      A
 Frequencies --    376.6489               379.0370               401.8455
 Red. masses --      3.0082                 2.7871                 5.4523
 Frc consts  --      0.2514                 0.2359                 0.5187
 IR Inten    --     12.0987                 9.9454                32.3233

                     25                     26                     27
                      A                      A                      A
 Frequencies --    418.6391               420.6892               449.8264
 Red. masses --      3.0664                 6.6181                 3.0699
 Frc consts  --      0.3166                 0.6901                 0.3660
 IR Inten    --      1.2308                23.3481                 6.6266

                     28                     29                     30
                      A                      A                      A
 Frequencies --    486.2009               489.5360               518.8783
 Red. masses --      5.8187                 4.4709                 3.5597
 Frc consts  --      0.8104                 0.6313                 0.5647
 IR Inten    --     20.9667                10.6784                24.7471

                     31                     32                     33
                      A                      A                      A
 Frequencies --    538.9147               569.0797               579.9200
 Red. masses --      6.0148                 6.4035                 6.9015
 Frc consts  --      1.0292                 1.2218                 1.3675
 IR Inten    --     18.4295                24.2167                42.5996

                     34                     35                     36
                      A                      A                      A
 Frequencies --    611.6500               634.6959               683.8961
 Red. masses --      4.7673                 6.3386                 4.3957
 Frc consts  --      1.0508                 1.5044                 1.2113
 IR Inten    --     34.2539                 0.2942               190.2464

                     37                     38                     39
                      A                      A                      A
 Frequencies --    707.4397               718.3793               739.8865
 Red. masses --      7.5470                 1.9042                 5.6010
 Frc consts  --      2.2254                 0.5790                 1.8065
 IR Inten    --    143.5368                43.9416                50.5668

                     40                     41                     42
                      A                      A                      A
 Frequencies --    766.0547               771.9200               810.5126
 Red. masses --      1.4712                 1.6896                 4.1916
 Frc consts  --      0.5087                 0.5932                 1.6224
 IR Inten    --     51.0845                13.3553                 2.1413

                     43                     44                     45
                      A                      A                      A
 Frequencies --    821.4999               834.8499               867.1675
 Red. masses --      1.6318                 3.5755                 1.2587
 Frc consts  --      0.6488                 1.4683                 0.5577
 IR Inten    --      7.8771                21.8506                 0.7915

                     46                     47                     48
                      A                      A                      A
 Frequencies --    879.1256               892.1788               933.3856
 Red. masses --      2.9742                 2.1773                 1.4651
 Frc consts  --      1.3543                 1.0211                 0.7521
 IR Inten    --     84.3520                 3.4673                 4.9641

                     49                     50                     51
                      A                      A                      A
 Frequencies --    935.9960               974.3770               977.9440
 Red. masses --      3.2210                 3.5906                 1.3713
 Frc consts  --      1.6626                 2.0085                 0.7727
 IR Inten    --    243.0413                26.8003                 0.7568

                     52                     53                     54
                      A                      A                      A
 Frequencies --   1004.3615              1006.2387              1016.5057
 Red. masses --      1.3251                 1.6579                 6.2181
 Frc consts  --      0.7876                 0.9891                 3.7856
 IR Inten    --      9.6071                59.0282                 0.5218

                     55                     56                     57
                      A                      A                      A
 Frequencies --   1027.5447              1048.1283              1054.3729
 Red. masses --      1.4206                 2.8507                 2.2416
 Frc consts  --      0.8837                 1.8451                 1.4683
 IR Inten    --     19.0014               124.2204                98.7230

                     58                     59                     60
                      A                      A                      A
 Frequencies --   1059.2483              1063.1202              1069.6955
 Red. masses --      1.6158                 1.9250                 3.5148
 Frc consts  --      1.0682                 1.2818                 2.3696
 IR Inten    --     52.0995               103.5281               105.9025

                     61                     62                     63
                      A                      A                      A
 Frequencies --   1080.8249              1112.6735              1127.6739
 Red. masses --      4.6577                 1.9534                 1.2539
 Frc consts  --      3.2058                 1.4249                 0.9395
 IR Inten    --    454.9556                98.9264                21.7234

                     64                     65                     66
                      A                      A                      A
 Frequencies --   1137.6173              1147.7208              1184.3191
 Red. masses --      2.6036                 4.6438                 1.4164
 Frc consts  --      1.9853                 3.6041                 1.1705
 IR Inten    --    181.2909               317.9695                 2.3532

                     67                     68                     69
                      A                      A                      A
 Frequencies --   1185.1621              1190.0086              1195.4024
 Red. masses --      1.3920                 1.1018                 1.7316
 Frc consts  --      1.1520                 0.9193                 1.4579
 IR Inten    --     25.0619                 0.7454                15.7310

                     70                     71                     72
                      A                      A                      A
 Frequencies --   1206.2019              1216.5212              1227.5896
 Red. masses --      1.1376                 3.5152                 2.0230
 Frc consts  --      0.9751                 3.0651                 1.7961
 IR Inten    --      0.4243               107.6821                32.6641

                     73                     74                     75
                      A                      A                      A
 Frequencies --   1243.2550              1250.2027              1270.1912
 Red. masses --      2.1448                 7.0450                 1.8872
 Frc consts  --      1.9532                 6.4877                 1.7940
 IR Inten    --    130.6054               445.1910                16.1209

                     76                     77                     78
                      A                      A                      A
 Frequencies --   1276.9321              1297.1063              1335.8193
 Red. masses --      2.1586                 1.5689                 1.3359
 Frc consts  --      2.0738                 1.5552                 1.4045
 IR Inten    --     75.8101                 7.7735                51.1715

                     79                     80                     81
                      A                      A                      A
 Frequencies --   1359.7561              1365.1414              1395.3304
 Red. masses --      3.8061                 1.3299                 1.5185
 Frc consts  --      4.1462                 1.4602                 1.7419
 IR Inten    --      3.9754                 2.2241                 0.6518

                     82                     83                     84
                      A                      A                      A
 Frequencies --   1436.9174              1444.9015              1471.0352
 Red. masses --      1.1460                 1.0969                 1.0967
 Frc consts  --      1.3941                 1.3493                 1.3983
 IR Inten    --      0.5570                26.7171                14.8415

                     85                     86                     87
                      A                      A                      A
 Frequencies --   1473.4906              1497.8856              1498.9920
 Red. masses --      1.1615                 1.2724                 1.4632
 Frc consts  --      1.4858                 1.6820                 1.9372
 IR Inten    --      1.6784                11.6837                10.1303

                     88                     89                     90
                      A                      A                      A
 Frequencies --   1501.1689              1514.3081              1516.4159
 Red. masses --      1.1643                 1.0477                 1.0518
 Frc consts  --      1.5459                 1.4155                 1.4250
 IR Inten    --      0.9893                 5.5423                18.0681

                     91                     92                     93
                      A                      A                      A
 Frequencies --   1519.7459              1535.4482              1543.3832
 Red. masses --      1.0990                 1.0464                 2.2607
 Frc consts  --      1.4955                 1.4536                 3.1728
 IR Inten    --      4.8559                15.5743                20.3363

                     94                     95                     96
                      A                      A                      A
 Frequencies --   1642.1174              1662.7503              3020.8707
 Red. masses --      5.4608                 5.7238                 1.0536
 Frc consts  --      8.6759                 9.3238                 5.6650
 IR Inten    --      1.2829                12.5830                86.5874

                     97                     98                     99
                      A                      A                      A
 Frequencies --   3027.7335              3059.7918              3068.6753
 Red. masses --      1.0503                 1.0625                 1.0608
 Frc consts  --      5.6726                 5.8606                 5.8857
 IR Inten    --    115.5412                18.1457                62.3638

                    100                    101                    102
                      A                      A                      A
 Frequencies --   3104.8272              3117.1636              3123.4022
 Red. masses --      1.0996                 1.0886                 1.1020
 Frc consts  --      6.2454                 6.2319                 6.3342
 IR Inten    --      8.6680                51.5959                61.1505

                    103                    104                    105
                      A                      A                      A
 Frequencies --   3126.0921              3130.6938              3135.2301
 Red. masses --      1.0836                 1.0568                 1.0570
 Frc consts  --      6.2394                 6.1025                 6.1214
 IR Inten    --     44.8517                 3.8052                22.3513

                    106                    107                    108
                      A                      A                      A
 Frequencies --   3179.1545              3188.5183              3189.9031
 Red. masses --      1.1008                 1.0870                 1.0873
 Frc consts  --      6.5549                 6.5112                 6.5186
 IR Inten    --     21.6352                19.4009                14.5595

                    109                    110                    111
                      A                      A                      A
 Frequencies --   3195.3847              3202.9413              3204.4329
 Red. masses --      1.1000                 1.0894                 1.1120
 Frc consts  --      6.6175                 6.5846                 6.7275
 IR Inten    --     12.3105                 8.5684                 3.0633

                    112                    113                    114
                      A                      A                      A
 Frequencies --   3209.6708              3213.5036              3223.5722
 Red. masses --      1.0938                 1.1115                 1.0975
 Frc consts  --      6.6388                 6.7628                 6.7193
 IR Inten    --     76.5016                 7.4559                37.5919

 - Thermochemistry -
 -------------------
 Temperature   298.150 Kelvin.  Pressure   1.00000 Atm.
 Atom     1 has atomic number  8 and mass  15.99491

 Molecular mass:   331.07863 amu.
 Principal axes and moments of inertia in atomic units:
                           1         2         3
     Eigenvalues --  5169.76776********************
           X            0.99757  -0.06205   0.03185
           Y            0.06598   0.98758  -0.14256
           Z           -0.02261   0.14432   0.98927
 This molecule is an asymmetric top.
 Rotational symmetry number  1.
 Warning -- assumption of classical behavior for rotation
           may cause significant error
 Rotational temperatures (Kelvin)      0.01675     0.00756     0.00566
 Rotational constants (GHZ):           0.34910     0.15751     0.11784
    1 imaginary frequencies ignored.
 Zero-point vibrational energy     836175.0 (Joules/Mol)
                                  199.85061 (Kcal/Mol)
 Warning -- explicit consideration of  33 degrees of freedom as
           vibrations may cause significant error
 Vibrational temperatures:     35.70    39.02    48.72    62.93    67.75
          (Kelvin)            126.74   150.83   191.79   209.75   262.43
                              272.42   286.45   302.35   326.84   340.55
                              402.00   420.05   468.50   477.45   503.99
                              541.91   545.35   578.17   602.33   605.28
                              647.20   699.53   704.33   746.55   775.38
                              818.78   834.38   880.03   913.19   983.97
                             1017.85  1033.59  1064.53  1102.18  1110.62
                             1166.15  1181.96  1201.16  1247.66  1264.87
                             1283.65  1342.93  1346.69  1401.91  1407.04
                             1445.05  1447.75  1462.53  1478.41  1508.02
                             1517.01  1524.02  1529.59  1539.05  1555.07
                             1600.89  1622.47  1636.78  1651.31  1703.97
                             1705.18  1712.16  1719.92  1735.46  1750.30
                             1766.23  1788.77  1798.76  1827.52  1837.22
                             1866.25  1921.95  1956.39  1964.13  2007.57
                             2067.40  2078.89  2116.49  2120.02  2155.12
                             2156.72  2159.85  2178.75  2181.78  2186.58
                             2209.17  2220.58  2362.64  2392.33  4346.36
                             4356.23  4402.36  4415.14  4467.15  4484.90
                             4493.88  4497.75  4504.37  4510.90  4574.09
                             4587.57  4589.56  4597.45  4608.32  4610.46
                             4618.00  4623.51  4638.00

 Zero-point correction=                           0.318482 (Hartree/Particle)
 Thermal correction to Energy=                    0.338952
 Thermal correction to Enthalpy=                  0.339896
 Thermal correction to Gibbs Free Energy=         0.267227
 Sum of electronic and zero-point Energies=          -1713.269665
 Sum of electronic and thermal Energies=             -1713.249195
 Sum of electronic and thermal Enthalpies=           -1713.248251
 Sum of electronic and thermal Free Energies=        -1713.320920

                     E (Thermal)             CV                S
                      KCal/Mol        Cal/Mol-Kelvin    Cal/Mol-Kelvin
 Total                  212.696             78.436            152.945
 Electronic               0.000              0.000              0.000
 Translational            0.889              2.981             43.287
 Rotational               0.889              2.981             35.160
 Vibrational            210.918             72.475             74.498
 Vibration     1          0.593              1.985              6.206
 Vibration     2          0.593              1.984              6.029
 Vibration     3          0.594              1.983              5.589
 Vibration     4          0.595              1.980              5.082
 Vibration     5          0.595              1.979              4.936
 Vibration     6          0.601              1.958              3.702
 Vibration     7          0.605              1.945              3.362
 Vibration     8          0.613              1.920              2.898
 Vibration     9          0.617              1.907              2.727
 Vibration    10          0.630              1.864              2.304
 Vibration    11          0.633              1.855              2.234
 Vibration    12          0.637              1.841              2.141
 Vibration    13          0.642              1.825              2.042
 Vibration    14          0.651              1.800              1.901
 Vibration    15          0.656              1.785              1.828
 Vibration    16          0.680              1.712              1.537
 Vibration    17          0.687              1.689              1.463
 Vibration    18          0.710              1.624              1.282
 Vibration    19          0.714              1.612              1.251
 Vibration    20          0.727              1.575              1.165
 Vibration    21          0.747              1.520              1.053
 Vibration    22          0.749              1.515              1.043
 Vibration    23          0.767              1.466              0.956
 Vibration    24          0.781              1.430              0.897
 Vibration    25          0.783              1.425              0.890
 Vibration    26          0.809              1.361              0.796
 Vibration    27          0.842              1.281              0.694
 Vibration    28          0.845              1.273              0.685
 Vibration    29          0.874              1.208              0.613
 Vibration    30          0.894              1.164              0.568
 Vibration    31          0.925              1.098              0.506
 Vibration    32          0.937              1.075              0.486
 Vibration    33          0.971              1.007              0.430

                           ! Non-Optimized Parameters !
 Normal termination of Gaussian 16 at Thu Sep 24 01:58:57 2020.

 ----------------------------------------------------------------------
 #p b3lyp/6-31G(d) scrf=(iefpcm,read,solvent=water) geom=allcheck guess
 =read
 ----------------------------------------------------------------------

 Structure from the checkpoint file:  "SM40.a.15.pdb.xyz.mst.a.w.chk"
 -----------------
 SM40.a.15.pdb.xyz
 -----------------
 Charge = -1 Multiplicity = 1

 SCF Done:  E(RB3LYP) =  -1713.58810357     A.U. after    7 cycles
 Normal termination of Gaussian 16 at Thu Sep 24 01:59:55 2020.

 -----------------------------
 #p B3LYP/6-31G* geom=allcheck
 -----------------------------

 Structure from the checkpoint file:  "SM40.a.15.pdb.xyz.mst.a.w.chk"
 -----------------
 SM40.a.15.pdb.xyz
 -----------------
 Charge = -1 Multiplicity = 1

 SCF Done:  E(RB3LYP) =  -1713.49490128     A.U. after   15 cycles
 Normal termination of Gaussian 16 at Thu Sep 24 02:01:04 2020.
 Gaussian 16:  ES64L-G16RevB.01 20-Dec-2017

 ----------------------------------------------------------------------
 #p mp2/aug-cc-pVDZ scf=(MaxCycle=2000,NoVarAcc,NoIncFock) maxdisk=120G
 B geom=allcheck
 ----------------------------------------------------------------------

 Structure from the checkpoint file:  "SM40.a.15.pdb.xyz.mst.a.w.chk"
 -----------------
 SM40.a.15.pdb.xyz
 -----------------
 Charge = -1 Multiplicity = 1

                         Standard orientation:
 ---------------------------------------------------------------------
 Center     Atomic      Atomic             Coordinates (Angstroms)
 Number     Number       Type             X           Y           Z
 ---------------------------------------------------------------------
      1          8           0        3.220397   -0.647305   -1.584433
      2         16           0        2.564707   -0.823684   -0.252816
      3          7           0        0.983052   -0.762090   -0.273576
      4          6           0        0.338375    0.534851   -0.239374
      5          6           0        0.873678    1.619039   -1.264447
      6         16           0        0.840747    2.881494    0.041244
      7          6           0        0.553610    1.410996    1.064469
      8          8           0        2.138801    3.553460    0.277134
      9          8           0       -0.366561    3.738580   -0.051900
     10          6           0       -1.166444    0.319371   -0.489901
     11          6           0       -1.857396   -0.586316    0.542065
     12          6           0       -3.336902   -0.740915    0.271106
     13          6           0       -3.811067   -1.761813   -0.564436
     14          6           0       -5.173170   -1.888763   -0.842434
     15          6           0       -6.088826   -0.993020   -0.285701
     16          6           0       -5.630524    0.027598    0.550180
     17          6           0       -4.267346    0.149847    0.823822
     18          7           0        2.789310   -2.485478    0.109911
     19          6           0        4.150481   -2.949101   -0.186773
     20          6           0        2.383772   -2.840294    1.475033
     21          8           0        3.227277    0.013973    0.803445
     22          1           0        0.228185    1.851910   -2.110751
     23          1           0        1.895693    1.431963   -1.593319
     24          1           0       -0.298024    1.511294    1.736651
     25          1           0        1.467819    1.149356    1.595597
     26          1           0       -1.280188   -0.114434   -1.488976
     27          1           0       -1.663146    1.296088   -0.506448
     28          1           0       -1.712320   -0.166754    1.544508
     29          1           0       -1.371762   -1.565489    0.530857
     30          1           0       -3.104935   -2.465433   -0.996805
     31          1           0       -5.519150   -2.689031   -1.489337
     32          1           0       -7.148601   -1.091924   -0.497799
     33          1           0       -6.333961    0.725991    0.992584
     34          1           0       -3.918601    0.943594    1.479050
     35          1           0        4.405779   -2.697974   -1.214392
     36          1           0        4.162954   -4.035082   -0.067944
     37          1           0        4.903822   -2.518446    0.489346
     38          1           0        1.374748   -2.474870    1.660379
     39          1           0        3.062346   -2.431097    2.236438
     40          1           0        2.386790   -3.930200    1.555553
 ---------------------------------------------------------------------

 SCF Done:  E(RHF) =  -1706.70968305     A.U. after   16 cycles
 E2 =    -0.3331841804D+01 EUMP2 =    -0.17100415248563D+04

 The electronic state is 1-A.
 Alpha  occ. eigenvalues --  -92.06778 -92.06404 -20.43249 -20.42868 -20.39394
 Alpha  occ. eigenvalues --  -20.38903 -15.46898 -15.38626 -11.18573 -11.16928
 Alpha  occ. eigenvalues --  -11.16906 -11.16715 -11.16604 -11.16047 -11.16001
 Alpha  occ. eigenvalues --  -11.15114 -11.14939 -11.14935 -11.14711 -11.13786
 Alpha  occ. eigenvalues --  -11.12857  -9.03765  -9.03295  -6.72258  -6.72158
 Alpha  occ. eigenvalues --   -6.72071  -6.71825  -6.71795  -6.71751  -1.30986
 Alpha  occ. eigenvalues --   -1.28946  -1.19830  -1.15592  -1.10715  -1.08153
 Alpha  occ. eigenvalues --   -1.07406  -0.98475  -0.97456  -0.93935  -0.90299
 Alpha  occ. eigenvalues --   -0.85017  -0.84135  -0.81527  -0.78277  -0.75170
 Alpha  occ. eigenvalues --   -0.72241  -0.69950  -0.66510  -0.61883  -0.61663
 Alpha  occ. eigenvalues --   -0.57414  -0.56509  -0.55725  -0.55362  -0.54545
 Alpha  occ. eigenvalues --   -0.53570  -0.52358  -0.51322  -0.51043  -0.50148
 Alpha  occ. eigenvalues --   -0.49867  -0.48821  -0.48016  -0.47535  -0.46080
 Alpha  occ. eigenvalues --   -0.44937  -0.44204  -0.43708  -0.42941  -0.41931
 Alpha  occ. eigenvalues --   -0.41102  -0.40783  -0.39413  -0.38866  -0.37329
 Alpha  occ. eigenvalues --   -0.36802  -0.35987  -0.34840  -0.33546  -0.33347
 Alpha  occ. eigenvalues --   -0.32565  -0.30631  -0.29634  -0.27276  -0.26091
 Alpha  occ. eigenvalues --   -0.25640  -0.24293  -0.21234
 Alpha virt. eigenvalues --    0.08836   0.09926   0.10663   0.11109   0.12002
 Alpha virt. eigenvalues --    0.12682   0.12912   0.13336   0.13818   0.14280
 Alpha virt. eigenvalues --    0.14792   0.15031   0.15469   0.15822   0.16387

 Mulliken charges:
               1
     1  O   -1.315076
     2  S    3.704386
     3  N   -1.815784
     4  C    0.494613
     5  C    0.420003
     6  S    2.931537
     7  C    0.355691
     8  O   -1.281579
     9  O   -1.329578
    10  C   -0.029705
    11  C    0.691504
    12  C    1.342996
    13  C    0.541852
    14  C   -0.034082
    15  C    0.622050
    16  C    0.040825
    17  C    0.444572
    18  N   -1.231758
    19  C    0.807196
    20  C    0.768627
    21  O   -1.417481
    22  H   -0.298632
    23  H   -0.235530
    24  H   -0.317583
    25  H   -0.286975
    26  H   -0.237668
    27  H   -0.205747
    28  H   -0.333507
    29  H   -0.266298
    30  H   -0.663031
    31  H   -0.471877
    32  H   -0.452278
    33  H   -0.476937
    34  H   -0.662711
    35  H   -0.151076
    36  H   -0.178015
    37  H   -0.034466
    38  H   -0.215924
    39  H   -0.005998
    40  H   -0.216555
 Sum of Mulliken charges =  -1.00000

 Dipole moment (field-independent basis, Debye):
    X=             -8.5427    Y=             -6.0740    Z=              1.7314  Tot=             10.6239
 Quadrupole moment (field-independent basis, Debye-Ang):
   XX=           -188.6720   YY=           -182.7243   ZZ=           -147.9618
   XY=            -10.1085   XZ=              4.3272   YZ=             -2.8800

 Normal termination of Gaussian 16 at Thu Sep 24 03:10:58 2020.
