 Gaussian 16, Revision B.01,

 ----------------------------------------------------------------------
 #p b3lyp/6-31G(d) opt freq NoSymm scf=(MaxCycle=2000,NoVarAcc,NoIncFoc
 k) scrf=(iefpcm,read,solvent=water)
 ----------------------------------------------------------------------

 -----------------
 SM40.n.13.pdb.xyz
 -----------------
 Symbolic Z-matrix:
 Charge =  0 Multiplicity = 1

 SCF Done:  E(RB3LYP) =  -1714.06671344     A.U. after   13 cycles
 SCF Done:  E(RB3LYP) =  -1714.06636142     A.U. after   10 cycles
 SCF Done:  E(RB3LYP) =  -1714.06693557     A.U. after   10 cycles
 SCF Done:  E(RB3LYP) =  -1714.06682986     A.U. after    9 cycles
 SCF Done:  E(RB3LYP) =  -1714.06683241     A.U. after    9 cycles
 SCF Done:  E(RB3LYP) =  -1714.06684493     A.U. after    8 cycles
 SCF Done:  E(RB3LYP) =  -1714.06683846     A.U. after    7 cycles
 SCF Done:  E(RB3LYP) =  -1714.06683558     A.U. after    7 cycles
 SCF Done:  E(RB3LYP) =  -1714.06683773     A.U. after    6 cycles
 SCF Done:  E(RB3LYP) =  -1714.06683821     A.U. after    6 cycles
 SCF Done:  E(RB3LYP) =  -1714.06683844     A.U. after    7 cycles
 Optimization completed.
    -- Stationary point found.
 Normal termination of Gaussian 16 at Tue Sep 22 06:38:21 2020.

 --------------------------------------------------------------------
 #P Geom=AllCheck Guess=TCheck SCRF=Check GenChk RB3LYP/6-31G(d) Freq
 --------------------------------------------------------------------

 Structure from the checkpoint file:  "SM40.n.13.pdb.xyz.mst.n.w.chk"
 -----------------
 SM40.n.13.pdb.xyz
 -----------------
 Charge =  0 Multiplicity = 1

 SCF Done:  E(RB3LYP) =  -1714.06683844     A.U. after    1 cycles

  Exact polarizability: 270.880 -27.187 242.285  21.737  25.839 233.366
 Approx polarizability: 297.452 -28.837 266.842  22.582  27.998 274.272

                      1                      2                      3
                      A                      A                      A
 Frequencies --     17.4625                23.9311                38.6477
 Red. masses --      4.8443                 6.3723                 6.8171
 Frc consts  --      0.0009                 0.0022                 0.0060
 IR Inten    --      3.5482                 0.5613                 4.7350

                      4                      5                      6
                      A                      A                      A
 Frequencies --     46.8567                49.1889                56.7772
 Red. masses --      3.9462                 5.2250                 3.2448
 Frc consts  --      0.0051                 0.0074                 0.0062
 IR Inten    --      0.9698                 0.3858                 1.9204

                      7                      8                      9
                      A                      A                      A
 Frequencies --     85.1457               121.5059               136.9096
 Red. masses --      3.5540                 5.5242                 5.9600
 Frc consts  --      0.0152                 0.0481                 0.0658
 IR Inten    --      4.0559                 7.3888                 2.9753

                     10                     11                     12
                      A                      A                      A
 Frequencies --    143.3949               181.6127               187.2468
 Red. masses --      3.0007                 1.6613                 2.3045
 Frc consts  --      0.0364                 0.0323                 0.0476
 IR Inten    --      6.1297                 4.2170                 9.2487

                     13                     14                     15
                      A                      A                      A
 Frequencies --    195.0844               207.1345               226.6997
 Red. masses --      4.6406                 1.6832                 2.6581
 Frc consts  --      0.1041                 0.0425                 0.0805
 IR Inten    --      5.8963                 1.5425                10.6874

                     16                     17                     18
                      A                      A                      A
 Frequencies --    266.2576               281.5173               300.4318
 Red. masses --      4.0282                 3.6113                 3.5000
 Frc consts  --      0.1683                 0.1686                 0.1861
 IR Inten    --      4.9575                 5.3088                 3.1757

                     19                     20                     21
                      A                      A                      A
 Frequencies --    317.2717               331.1427               346.9121
 Red. masses --      3.7458                 2.3758                 2.6255
 Frc consts  --      0.2222                 0.1535                 0.1862
 IR Inten    --     34.8257                 3.4024                 3.0576

                     22                     23                     24
                      A                      A                      A
 Frequencies --    356.8518               382.4104               392.5761
 Red. masses --      3.2549                 3.7114                 2.8179
 Frc consts  --      0.2442                 0.3198                 0.2559
 IR Inten    --      9.0449                18.6824                15.4567

                     25                     26                     27
                      A                      A                      A
 Frequencies --    420.0500               433.4990               441.2306
 Red. masses --      2.9664                 4.0944                 2.8866
 Frc consts  --      0.3084                 0.4533                 0.3311
 IR Inten    --      0.3673                51.7970                 8.1893

                     28                     29                     30
                      A                      A                      A
 Frequencies --    467.4847               480.4526               494.8024
 Red. masses --      5.6876                 3.7293                 3.8425
 Frc consts  --      0.7323                 0.5072                 0.5543
 IR Inten    --     31.5767                24.1670                10.3813

                     31                     32                     33
                      A                      A                      A
 Frequencies --    513.8085               562.5171               573.4466
 Red. masses --      3.3346                 4.5700                 4.1359
 Frc consts  --      0.5187                 0.8520                 0.8013
 IR Inten    --     26.2545                41.4811                25.5355

                     34                     35                     36
                      A                      A                      A
 Frequencies --    590.6546               634.8945               637.4120
 Red. masses --      4.8952                 5.9836                 3.2444
 Frc consts  --      1.0062                 1.4211                 0.7766
 IR Inten    --    148.3666                 4.9031                67.3981

                     37                     38                     39
                      A                      A                      A
 Frequencies --    691.0481               718.6011               736.8348
 Red. masses --      5.3681                 2.1658                 3.0646
 Frc consts  --      1.5104                 0.6589                 0.9803
 IR Inten    --    185.7355                27.0947                64.0834

                     40                     41                     42
                      A                      A                      A
 Frequencies --    755.5905               758.1470               778.0185
 Red. masses --      5.5673                 1.8660                 2.4856
 Frc consts  --      1.8727                 0.6319                 0.8865
 IR Inten    --     58.1336                45.1534                18.1975

                     43                     44                     45
                      A                      A                      A
 Frequencies --    797.5831               828.2793               847.7944
 Red. masses --      2.8903                 1.7224                 2.6316
 Frc consts  --      1.0833                 0.6962                 1.1144
 IR Inten    --      2.3832                26.5616                83.3447

                     46                     47                     48
                      A                      A                      A
 Frequencies --    868.2757               898.4089               916.1769
 Red. masses --      1.2514                 2.3327                 1.9375
 Frc consts  --      0.5559                 1.1093                 0.9582
 IR Inten    --      0.3182                87.7176                10.6412

                     49                     50                     51
                      A                      A                      A
 Frequencies --    943.8144               946.6725               960.8763
 Red. masses --      2.5328                 2.1140                 1.9510
 Frc consts  --      1.3293                 1.1162                 1.0613
 IR Inten    --    185.9089               101.9070                18.7445

                     52                     53                     54
                      A                      A                      A
 Frequencies --    980.3585              1007.0494              1009.9472
 Red. masses --      1.3564                 1.9261                 1.2599
 Frc consts  --      0.7681                 1.1509                 0.7571
 IR Inten    --      0.2824                29.8871                 0.4726

                     55                     56                     57
                      A                      A                      A
 Frequencies --   1016.8434              1036.4937              1047.0629
 Red. masses --      6.1647                 2.0784                 1.7089
 Frc consts  --      3.7555                 1.3155                 1.1038
 IR Inten    --      1.3994                11.7582                22.2309

                     58                     59                     60
                      A                      A                      A
 Frequencies --   1057.1255              1064.7227              1070.9900
 Red. masses --      2.1994                 1.9540                 1.6158
 Frc consts  --      1.4481                 1.3051                 1.0920
 IR Inten    --     17.4825                50.7839                27.0106

                     61                     62                     63
                      A                      A                      A
 Frequencies --   1082.7129              1103.1076              1107.6784
 Red. masses --      2.6108                 4.4347                 2.6765
 Frc consts  --      1.8032                 3.1794                 1.9348
 IR Inten    --    113.8128               272.1541               177.6549

                     64                     65                     66
                      A                      A                      A
 Frequencies --   1131.3279              1143.6455              1178.2688
 Red. masses --      1.2334                 1.9700                 1.3620
 Frc consts  --      0.9301                 1.5181                 1.1141
 IR Inten    --      2.6468                10.3472                 4.3995

                     67                     68                     69
                      A                      A                      A
 Frequencies --   1191.6646              1193.4352              1208.9965
 Red. masses --      1.1030                 1.3740                 1.1364
 Frc consts  --      0.9228                 1.1530                 0.9787
 IR Inten    --      0.1547                11.4867                 0.3740

                     70                     71                     72
                      A                      A                      A
 Frequencies --   1213.7755              1223.4877              1232.1138
 Red. masses --      2.0074                 2.5427                 2.2824
 Frc consts  --      1.7424                 2.2426                 2.0414
 IR Inten    --      6.5478                67.7510                 2.9123

                     73                     74                     75
                      A                      A                      A
 Frequencies --   1248.3662              1263.4046              1264.7970
 Red. masses --      2.2495                 2.0858                 6.4194
 Frc consts  --      2.0655                 1.9616                 6.0504
 IR Inten    --    147.5235               173.8293               358.3764

                     76                     77                     78
                      A                      A                      A
 Frequencies --   1277.9190              1286.8485              1308.6767
 Red. masses --      2.3820                 2.0539                 1.6433
 Frc consts  --      2.2919                 2.0040                 1.6582
 IR Inten    --    127.9517                37.1940               105.8055

                     79                     80                     81
                      A                      A                      A
 Frequencies --   1351.1437              1365.3774              1391.2213
 Red. masses --      2.5673                 1.7987                 1.4166
 Frc consts  --      2.7614                 1.9757                 1.6155
 IR Inten    --      3.6388                 0.3296                11.9041

                     82                     83                     84
                      A                      A                      A
 Frequencies --   1393.9642              1454.3793              1457.5343
 Red. masses --      1.4212                 1.1707                 1.1407
 Frc consts  --      1.6271                 1.4590                 1.4277
 IR Inten    --      6.9907                53.8174                30.3441

                     85                     86                     87
                      A                      A                      A
 Frequencies --   1461.0630              1475.0758              1484.4354
 Red. masses --      1.1214                 1.1384                 1.0982
 Frc consts  --      1.4104                 1.4594                 1.4257
 IR Inten    --      9.9051                 6.5236                13.0613

                     88                     89                     90
                      A                      A                      A
 Frequencies --   1495.4687              1502.8103              1503.9051
 Red. masses --      1.2847                 1.0477                 1.6611
 Frc consts  --      1.6928                 1.3942                 2.2136
 IR Inten    --      6.5682                 7.8753                10.3675

                     91                     92                     93
                      A                      A                      A
 Frequencies --   1513.8067              1516.4302              1520.0390
 Red. masses --      1.0483                 1.0951                 1.0702
 Frc consts  --      1.4153                 1.4838                 1.4568
 IR Inten    --     20.3773                10.9424                16.6799

                     94                     95                     96
                      A                      A                      A
 Frequencies --   1534.3445              1543.8644              1642.5434
 Red. masses --      1.0475                 2.2341                 5.3934
 Frc consts  --      1.4530                 3.1374                 8.5732
 IR Inten    --     14.5262                16.6885                 1.3816

                     97                     98                     99
                      A                      A                      A
 Frequencies --   1662.6238              3059.4236              3060.0562
 Red. masses --      5.6467                 1.0663                 1.0455
 Frc consts  --      9.1967                 5.8802                 5.7681
 IR Inten    --      7.6442                16.3602                61.2782

                    100                    101                    102
                      A                      A                      A
 Frequencies --   3063.9587              3070.7056              3110.6693
 Red. masses --      1.0427                 1.0641                 1.1001
 Frc consts  --      5.7673                 5.9117                 6.2719
 IR Inten    --     75.0254                64.2454                 9.1548

                    103                    104                    105
                      A                      A                      A
 Frequencies --   3123.1853              3132.4464              3145.4085
 Red. masses --      1.0974                 1.0582                 1.0956
 Frc consts  --      6.3069                 6.1177                 6.3864
 IR Inten    --     49.2429                 5.0276                43.6752

                    106                    107                    108
                      A                      A                      A
 Frequencies --   3147.8657              3155.6516              3186.3182
 Red. masses --      1.0949                 1.0576                 1.0877
 Frc consts  --      6.3924                 6.2053                 6.5062
 IR Inten    --      9.3587                13.0617                18.5094

                    109                    110                    111
                      A                      A                      A
 Frequencies --   3194.3635              3196.1710              3204.7416
 Red. masses --      1.0915                 1.0971                 1.0897
 Frc consts  --      6.5619                 6.6034                 6.5940
 IR Inten    --     24.7759                 1.6191                10.0384

                    112                    113                    114
                      A                      A                      A
 Frequencies --   3205.1502              3209.3216              3211.1140
 Red. masses --      1.1114                 1.1014                 1.0937
 Frc consts  --      6.7269                 6.6840                 6.6443
 IR Inten    --      4.1574                 6.0858                71.1689

                    115                    116                    117
                      A                      A                      A
 Frequencies --   3224.9177              3235.0958              3498.2781
 Red. masses --      1.0974                 1.1108                 1.0755
 Frc consts  --      6.7247                 6.8495                 7.7549
 IR Inten    --     35.1505                13.3800               111.3147

 - Thermochemistry -
 -------------------
 Temperature   298.150 Kelvin.  Pressure   1.00000 Atm.
 Atom     1 has atomic number  8 and mass  15.99491

 Molecular mass:   332.08645 amu.
 Principal axes and moments of inertia in atomic units:
                           1         2         3
     Eigenvalues --  5241.795458920.18192**********
           X            0.99999  -0.00532  -0.00041
           Y            0.00532   0.99985   0.01662
           Z            0.00032  -0.01662   0.99986
 This molecule is an asymmetric top.
 Rotational symmetry number  1.
 Warning -- assumption of classical behavior for rotation
           may cause significant error
 Rotational temperatures (Kelvin)      0.01652     0.00971     0.00723
 Rotational constants (GHZ):           0.34430     0.20232     0.15056
 Zero-point vibrational energy     873543.3 (Joules/Mol)
                                  208.78186 (Kcal/Mol)
 Warning -- explicit consideration of  34 degrees of freedom as
           vibrations may cause significant error
 Vibrational temperatures:     25.12    34.43    55.61    67.42    70.77
          (Kelvin)             81.69   122.51   174.82   196.98   206.31
                              261.30   269.41   280.68   298.02   326.17
                              383.09   405.04   432.25   456.48   476.44
                              499.13   513.43   550.20   564.83   604.36
                              623.71   634.83   672.61   691.26   711.91
                              739.26   809.34   825.06   849.82   913.47
                              917.09   994.26  1033.91  1060.14  1087.13
                             1090.80  1119.40  1147.54  1191.71  1219.79
                             1249.26  1292.61  1318.17  1357.94  1362.05
                             1382.49  1410.52  1448.92  1453.09  1463.01
                             1491.28  1506.49  1520.97  1531.90  1540.92
                             1557.78  1587.13  1593.70  1627.73  1645.45
                             1695.27  1714.54  1717.09  1739.48  1746.35
                             1760.33  1772.74  1796.12  1817.76  1819.76
                             1838.64  1851.49  1882.89  1943.99  1964.47
                             2001.66  2005.60  2092.53  2097.07  2102.14
                             2122.31  2135.77  2151.65  2162.21  2163.78
                             2178.03  2181.80  2187.00  2207.58  2221.28
                             2363.25  2392.14  4401.83  4402.74  4408.35
                             4418.06  4475.56  4493.57  4506.89  4525.54
                             4529.08  4540.28  4584.40  4595.98  4598.58
                             4610.91  4611.50  4617.50  4620.08  4639.94
                             4654.58  5033.24

 Zero-point correction=                           0.332715 (Hartree/Particle)
 Thermal correction to Energy=                    0.354145
 Thermal correction to Enthalpy=                  0.355089
 Thermal correction to Gibbs Free Energy=         0.280140
 Sum of electronic and zero-point Energies=          -1713.734123
 Sum of electronic and thermal Energies=             -1713.712694
 Sum of electronic and thermal Enthalpies=           -1713.711750
 Sum of electronic and thermal Free Energies=        -1713.786699

                     E (Thermal)             CV                S
                      KCal/Mol        Cal/Mol-Kelvin    Cal/Mol-Kelvin
 Total                  222.229             81.291            157.744
 Electronic               0.000              0.000              0.000
 Translational            0.889              2.981             43.296
 Rotational               0.889              2.981             34.682
 Vibrational            220.452             75.330             79.766
 Vibration     1          0.593              1.986              6.904
 Vibration     2          0.593              1.985              6.278
 Vibration     3          0.594              1.981              5.327
 Vibration     4          0.595              1.979              4.946
 Vibration     5          0.595              1.978              4.850
 Vibration     6          0.596              1.975              4.566
 Vibration     7          0.601              1.959              3.769
 Vibration     8          0.609              1.931              3.076
 Vibration     9          0.614              1.916              2.847
 Vibration    10          0.616              1.910              2.758
 Vibration    11          0.630              1.865              2.312
 Vibration    12          0.632              1.857              2.255
 Vibration    13          0.636              1.847              2.179
 Vibration    14          0.641              1.830              2.069
 Vibration    15          0.650              1.800              1.905
 Vibration    16          0.672              1.735              1.620
 Vibration    17          0.681              1.708              1.524
 Vibration    18          0.693              1.673              1.414
 Vibration    19          0.704              1.641              1.324
 Vibration    20          0.714              1.613              1.255
 Vibration    21          0.725              1.582              1.180
 Vibration    22          0.732              1.561              1.136
 Vibration    23          0.752              1.508              1.030
 Vibration    24          0.760              1.486              0.990
 Vibration    25          0.783              1.427              0.892
 Vibration    26          0.794              1.397              0.847
 Vibration    27          0.801              1.380              0.823
 Vibration    28          0.825              1.322              0.745
 Vibration    29          0.837              1.293              0.709
 Vibration    30          0.850              1.262              0.671
 Vibration    31          0.869              1.219              0.624
 Vibration    32          0.918              1.112              0.519
 Vibration    33          0.930              1.089              0.498
 Vibration    34          0.948              1.052              0.466

                           ! Non-Optimized Parameters !
 Normal termination of Gaussian 16 at Tue Sep 22 07:00:17 2020.

 ----------------------------------------------------------------------
 #p b3lyp/6-31G(d) scrf=(iefpcm,read,solvent=water) geom=allcheck guess
 =read
 ----------------------------------------------------------------------

 Structure from the checkpoint file:  "SM40.n.13.pdb.xyz.mst.n.w.chk"
 -----------------
 SM40.n.13.pdb.xyz
 -----------------
 Charge =  0 Multiplicity = 1

 SCF Done:  E(RB3LYP) =  -1714.06684598     A.U. after    5 cycles
 Normal termination of Gaussian 16 at Tue Sep 22 07:01:03 2020.

 -----------------------------
 #p B3LYP/6-31G* geom=allcheck
 -----------------------------

 Structure from the checkpoint file:  "SM40.n.13.pdb.xyz.mst.n.w.chk"
 -----------------
 SM40.n.13.pdb.xyz
 -----------------
 Charge =  0 Multiplicity = 1

 SCF Done:  E(RB3LYP) =  -1714.03734847     A.U. after   15 cycles
 Normal termination of Gaussian 16 at Tue Sep 22 07:02:18 2020.
 Gaussian 16:  ES64L-G16RevB.01 20-Dec-2017

 ----------------------------------------------------------------------
 #p mp2/aug-cc-pVDZ scf=(MaxCycle=2000,NoVarAcc,NoIncFock) maxdisk=120G
 B geom=allcheck
 ----------------------------------------------------------------------

 Structure from the checkpoint file:  "SM40.n.13.pdb.xyz.mst.n.w.chk"
 -----------------
 SM40.n.13.pdb.xyz
 -----------------
 Charge =  0 Multiplicity = 1

                         Standard orientation:
 ---------------------------------------------------------------------
 Center     Atomic      Atomic             Coordinates (Angstroms)
 Number     Number       Type             X           Y           Z
 ---------------------------------------------------------------------
      1          8           0        2.146621    0.048870   -1.550777
      2         16           0        2.555627   -0.194864   -0.157190
      3          7           0        1.140610   -0.353983    0.742214
      4          6           0        0.103918    0.695337    0.751961
      5          6           0       -0.607144    0.892405   -0.629609
      6         16           0       -0.484059    2.699862   -0.431507
      7          6           0        0.616032    2.172308    0.920243
      8          8           0        0.199050    3.392937   -1.541204
      9          8           0       -1.742540    3.281615    0.084702
     10          6           0       -0.878982    0.356768    1.889167
     11          6           0       -1.512905   -1.048466    1.878639
     12          6           0       -2.526636   -1.316398    0.784804
     13          6           0       -2.281449   -2.286379   -0.195118
     14          6           0       -3.215218   -2.545910   -1.200972
     15          6           0       -4.416197   -1.836493   -1.240264
     16          6           0       -4.678259   -0.872161   -0.262917
     17          6           0       -3.743566   -0.619264    0.741150
     18          7           0        3.164780   -1.725493    0.111382
     19          6           0        2.482938   -2.798672   -0.630398
     20          6           0        4.634109   -1.831449    0.112785
     21          8           0        3.505976    0.759554    0.436733
     22          1           0        1.410461   -0.621167    1.690205
     23          1           0       -1.628446    0.528108   -0.699939
     24          1           0       -0.001387    0.572058   -1.475936
     25          1           0        0.407416    2.654891    1.875675
     26          1           0        1.659552    2.308543    0.637942
     27          1           0       -1.661618    1.121221    1.880362
     28          1           0       -0.338340    0.483701    2.833779
     29          1           0       -2.000377   -1.173108    2.852469
     30          1           0       -0.724951   -1.804511    1.828642
     31          1           0       -1.349304   -2.843305   -0.166035
     32          1           0       -3.003474   -3.301224   -1.951257
     33          1           0       -5.143546   -2.034664   -2.020720
     34          1           0       -5.613709   -0.321095   -0.279389
     35          1           0       -3.961934    0.127385    1.500524
     36          1           0        1.405172   -2.671126   -0.544405
     37          1           0        2.763534   -3.745747   -0.166348
     38          1           0        2.769049   -2.816431   -1.687738
     39          1           0        5.056333   -1.037855    0.725002
     40          1           0        5.057876   -1.785599   -0.897214
     41          1           0        4.882185   -2.797280    0.555895
 ---------------------------------------------------------------------

 SCF Done:  E(RHF) =  -1707.24767303     A.U. after   16 cycles
 E2 =    -0.3323609783D+01 EUMP2 =    -0.17105712828170D+04

 The electronic state is 1-A.
 Alpha  occ. eigenvalues --  -92.25905 -92.18736 -20.57574 -20.57484 -20.54825
 Alpha  occ. eigenvalues --  -20.54649 -15.63606 -15.63334 -11.33945 -11.29549
 Alpha  occ. eigenvalues --  -11.29112 -11.28405 -11.27648 -11.26962 -11.26346
 Alpha  occ. eigenvalues --  -11.26174 -11.25569 -11.25500 -11.25307 -11.25173
 Alpha  occ. eigenvalues --  -11.25150  -9.22422  -9.16018  -6.90956  -6.90926
 Alpha  occ. eigenvalues --   -6.90890  -6.84508  -6.84415  -6.84349  -1.48384
 Alpha  occ. eigenvalues --   -1.42883  -1.35256  -1.31618  -1.28363  -1.26327
 Alpha  occ. eigenvalues --   -1.17177  -1.14455  -1.08570  -1.02839  -1.02034
 Alpha  occ. eigenvalues --   -0.99826  -0.97419  -0.97317  -0.92126  -0.85568
 Alpha  occ. eigenvalues --   -0.84046  -0.83057  -0.80682  -0.77859  -0.75032
 Alpha  occ. eigenvalues --   -0.71854  -0.71138  -0.70228  -0.68435  -0.67735
 Alpha  occ. eigenvalues --   -0.66555  -0.65929  -0.64967  -0.64469  -0.63493
 Alpha  occ. eigenvalues --   -0.62885  -0.61322  -0.60733  -0.60526  -0.59744
 Alpha  occ. eigenvalues --   -0.59152  -0.58535  -0.58238  -0.57636  -0.55875
 Alpha  occ. eigenvalues --   -0.54777  -0.54167  -0.53325  -0.52503  -0.51302
 Alpha  occ. eigenvalues --   -0.50318  -0.49955  -0.49498  -0.48940  -0.47910
 Alpha  occ. eigenvalues --   -0.47485  -0.46352  -0.45057  -0.44357  -0.42584
 Alpha  occ. eigenvalues --   -0.41115  -0.34948  -0.33979
 Alpha virt. eigenvalues --    0.01843   0.02749   0.03158   0.03852   0.04220
 Alpha virt. eigenvalues --    0.04477   0.05100   0.05621   0.05771   0.06011
 Alpha virt. eigenvalues --    0.06989   0.07274   0.07472   0.07800   0.08187

 Mulliken charges:
               1
     1  O   -1.253345
     2  S    3.506003
     3  N   -1.206026
     4  C   -0.160917
     5  C    0.352837
     6  S    2.957008
     7  C    0.639903
     8  O   -1.244665
     9  O   -1.291592
    10  C    0.416392
    11  C    0.533501
    12  C    0.606394
    13  C    0.865984
    14  C   -0.047477
    15  C    0.739022
    16  C    0.146772
    17  C    0.598255
    18  N   -1.177446
    19  C    0.877981
    20  C    0.836044
    21  O   -1.211213
    22  H   -0.047356
    23  H   -0.202551
    24  H   -0.337987
    25  H   -0.276158
    26  H   -0.243724
    27  H   -0.154521
    28  H   -0.117338
    29  H   -0.113228
    30  H   -0.287908
    31  H   -0.703063
    32  H   -0.501898
    33  H   -0.450905
    34  H   -0.487947
    35  H   -0.693131
    36  H   -0.359829
    37  H   -0.166906
    38  H   -0.011706
    39  H   -0.154331
    40  H   -0.032194
    41  H   -0.140736
 Sum of Mulliken charges =  -0.00000

 Dipole moment (field-independent basis, Debye):
    X=              0.8992    Y=             -8.9913    Z=              4.6182  Tot=             10.1479
 Quadrupole moment (field-independent basis, Debye-Ang):
   XX=           -135.6096   YY=           -157.4008   ZZ=           -140.1002
   XY=             -8.6527   XZ=              6.0284   YZ=             14.1653

 Normal termination of Gaussian 16 at Tue Sep 22 08:06:00 2020.
