 Gaussian 16, Revision B.01,

 ----------------------------------------------------------------------
 #p b3lyp/6-31G(d) opt freq NoSymm scf=(MaxCycle=2000,NoVarAcc,NoIncFoc
 k) scrf=(iefpcm,read,solvent=water)
 ----------------------------------------------------------------------

 ----------------
 SM40.n.7.pdb.xyz
 ----------------
 Symbolic Z-matrix:
 Charge =  0 Multiplicity = 1

 SCF Done:  E(RB3LYP) =  -1714.06742408     A.U. after   13 cycles
 SCF Done:  E(RB3LYP) =  -1714.06766373     A.U. after   10 cycles
 SCF Done:  E(RB3LYP) =  -1714.06779247     A.U. after   10 cycles
 SCF Done:  E(RB3LYP) =  -1714.06773836     A.U. after   10 cycles
 SCF Done:  E(RB3LYP) =  -1714.06768162     A.U. after   10 cycles
 SCF Done:  E(RB3LYP) =  -1714.06779412     A.U. after   10 cycles
 SCF Done:  E(RB3LYP) =  -1714.06780645     A.U. after    8 cycles
 SCF Done:  E(RB3LYP) =  -1714.06779943     A.U. after    8 cycles
 SCF Done:  E(RB3LYP) =  -1714.06781820     A.U. after    8 cycles
 SCF Done:  E(RB3LYP) =  -1714.06780236     A.U. after    8 cycles
 SCF Done:  E(RB3LYP) =  -1714.06780332     A.U. after    7 cycles
 SCF Done:  E(RB3LYP) =  -1714.06780519     A.U. after    7 cycles
 SCF Done:  E(RB3LYP) =  -1714.06779839     A.U. after    8 cycles
 SCF Done:  E(RB3LYP) =  -1714.06780520     A.U. after    8 cycles
 SCF Done:  E(RB3LYP) =  -1714.06780650     A.U. after    8 cycles
 SCF Done:  E(RB3LYP) =  -1714.06780654     A.U. after    6 cycles
 Optimization completed.
    -- Stationary point found.
 Normal termination of Gaussian 16 at Tue Sep 22 06:49:28 2020.

 --------------------------------------------------------------------
 #P Geom=AllCheck Guess=TCheck SCRF=Check GenChk RB3LYP/6-31G(d) Freq
 --------------------------------------------------------------------

 Structure from the checkpoint file:  "SM40.n.7.pdb.xyz.mst.n.w.chk"
 ----------------
 SM40.n.7.pdb.xyz
 ----------------
 Charge =  0 Multiplicity = 1

 SCF Done:  E(RB3LYP) =  -1714.06780654     A.U. after    1 cycles

  Exact polarizability: 261.848 -40.261 236.350   0.504  -0.224 248.916
 Approx polarizability: 287.586 -47.293 261.058  -2.653  -5.662 291.961

                      1                      2                      3
                      A                      A                      A
 Frequencies --     26.0587                34.3402                43.7744
 Red. masses --      4.9265                 4.7430                 5.9258
 Frc consts  --      0.0020                 0.0033                 0.0067
 IR Inten    --      2.6868                 0.7987                 1.0864

                      4                      5                      6
                      A                      A                      A
 Frequencies --     48.6621                50.3404                70.0165
 Red. masses --      6.5561                 3.8765                 3.2534
 Frc consts  --      0.0091                 0.0058                 0.0094
 IR Inten    --      4.5400                 0.8853                 5.4449

                      7                      8                      9
                      A                      A                      A
 Frequencies --     79.5113               107.8598               148.1436
 Red. masses --      3.8637                 6.5447                 7.1891
 Frc consts  --      0.0144                 0.0449                 0.0930
 IR Inten    --      2.8640                 0.8493                 0.2949

                     10                     11                     12
                      A                      A                      A
 Frequencies --    162.6517               183.5654               197.4635
 Red. masses --      4.6517                 2.3441                 2.2149
 Frc consts  --      0.0725                 0.0465                 0.0509
 IR Inten    --      6.4576                10.2357                 7.0806

                     13                     14                     15
                      A                      A                      A
 Frequencies --    212.3398               225.3502               238.6194
 Red. masses --      1.5084                 1.9222                 2.9825
 Frc consts  --      0.0401                 0.0575                 0.1001
 IR Inten    --      5.3108                13.7763                 1.8445

                     16                     17                     18
                      A                      A                      A
 Frequencies --    254.7245               272.6590               309.2997
 Red. masses --      5.2125                 3.6016                 2.9021
 Frc consts  --      0.1993                 0.1578                 0.1636
 IR Inten    --      5.9377                 3.1932                 4.0090

                     19                     20                     21
                      A                      A                      A
 Frequencies --    318.7216               342.5854               355.2337
 Red. masses --      3.2874                 2.4789                 2.3833
 Frc consts  --      0.1968                 0.1714                 0.1772
 IR Inten    --      3.6786                 1.5719                 2.0956

                     22                     23                     24
                      A                      A                      A
 Frequencies --    357.8215               386.9068               394.9597
 Red. masses --      2.5896                 3.7123                 4.9787
 Frc consts  --      0.1953                 0.3274                 0.4576
 IR Inten    --      5.7507                19.2629                24.5334

                     25                     26                     27
                      A                      A                      A
 Frequencies --    420.5750               436.3794               438.4999
 Red. masses --      2.9740                 2.3287                 2.9060
 Frc consts  --      0.3099                 0.2613                 0.3292
 IR Inten    --      1.1032                43.7789                44.9939

                     28                     29                     30
                      A                      A                      A
 Frequencies --    455.9016               482.2604               489.9487
 Red. masses --      3.4613                 2.9662                 4.7786
 Frc consts  --      0.4239                 0.4065                 0.6759
 IR Inten    --     55.4910                95.3953                 8.6686

                     31                     32                     33
                      A                      A                      A
 Frequencies --    509.3926               525.3416               569.3159
 Red. masses --      3.7682                 4.7601                 4.9093
 Frc consts  --      0.5761                 0.7740                 0.9375
 IR Inten    --     44.1893                38.2394                31.1302

                     34                     35                     36
                      A                      A                      A
 Frequencies --    587.3140               602.4587               634.6629
 Red. masses --      3.3966                 6.1263                 6.3645
 Frc consts  --      0.6903                 1.3101                 1.5104
 IR Inten    --     65.0188                68.7295                 0.0924

                     37                     38                     39
                      A                      A                      A
 Frequencies --    664.5860               713.9972               720.8662
 Red. masses --      5.8775                 2.6471                 2.2430
 Frc consts  --      1.5295                 0.7951                 0.6867
 IR Inten    --    149.0047                 4.1369                40.6756

                     40                     41                     42
                      A                      A                      A
 Frequencies --    756.8124               757.5641               773.5571
 Red. masses --      2.4504                 4.6349                 2.1609
 Frc consts  --      0.8269                 1.5672                 0.7619
 IR Inten    --     24.7229                93.0351                40.2994

                     43                     44                     45
                      A                      A                      A
 Frequencies --    801.5417               817.8272               849.4075
 Red. masses --      3.3089                 1.5984                 3.1885
 Frc consts  --      1.2525                 0.6299                 1.3554
 IR Inten    --     13.2077                16.6027                96.6806

                     46                     47                     48
                      A                      A                      A
 Frequencies --    869.5394               885.7136               919.9542
 Red. masses --      1.2512                 2.5410                 1.5632
 Frc consts  --      0.5574                 1.1745                 0.7795
 IR Inten    --      0.1392                17.6015                13.0308

                     49                     50                     51
                      A                      A                      A
 Frequencies --    939.6644               949.9984               964.8629
 Red. masses --      3.2685                 1.8536                 2.6853
 Frc consts  --      1.7003                 0.9856                 1.4729
 IR Inten    --    222.9629                15.8997                76.3103

                     52                     53                     54
                      A                      A                      A
 Frequencies --    983.2615              1000.1321              1009.3957
 Red. masses --      1.3551                 2.0975                 1.2595
 Frc consts  --      0.7719                 1.2361                 0.7561
 IR Inten    --      0.2662                17.1256                 0.5405

                     55                     56                     57
                      A                      A                      A
 Frequencies --   1016.6411              1039.7939              1047.4125
 Red. masses --      6.1109                 1.8642                 1.4715
 Frc consts  --      3.7213                 1.1875                 0.9511
 IR Inten    --      0.6051                60.9866                 3.6340

                     58                     59                     60
                      A                      A                      A
 Frequencies --   1058.6019              1067.3491              1074.3481
 Red. masses --      2.0585                 1.6264                 1.8506
 Frc consts  --      1.3592                 1.0917                 1.2585
 IR Inten    --      4.4275                18.9756                86.6044

                     61                     62                     63
                      A                      A                      A
 Frequencies --   1081.3336              1099.8814              1118.3964
 Red. masses --      4.1605                 9.7435                 1.6678
 Frc consts  --      2.8662                 6.9447                 1.2291
 IR Inten    --    265.5309               264.7309                 4.5864

                     64                     65                     66
                      A                      A                      A
 Frequencies --   1131.9678              1149.1073              1179.7859
 Red. masses --      1.2303                 3.6288                 1.3895
 Frc consts  --      0.9288                 2.8231                 1.1395
 IR Inten    --      1.9884                63.2630                 5.2527

                     67                     68                     69
                      A                      A                      A
 Frequencies --   1188.7454              1192.0305              1207.6315
 Red. masses --      1.0945                 1.3151                 1.1304
 Frc consts  --      0.9113                 1.1010                 0.9713
 IR Inten    --      0.1241                 5.9895                 1.0276

                     70                     71                     72
                      A                      A                      A
 Frequencies --   1214.6763              1222.5861              1230.2063
 Red. masses --      3.1401                 1.4244                 2.5603
 Frc consts  --      2.7297                 1.2544                 2.2829
 IR Inten    --     40.7027                15.1027                41.1886

                     73                     74                     75
                      A                      A                      A
 Frequencies --   1236.7427              1257.8191              1272.2557
 Red. masses --      2.1814                 1.7262                 5.0063
 Frc consts  --      1.9659                 1.6091                 4.7743
 IR Inten    --    116.1098                17.9047               389.5850

                     76                     77                     78
                      A                      A                      A
 Frequencies --   1275.0328              1284.9127              1327.8827
 Red. masses --      2.6933                 3.8130                 1.4749
 Frc consts  --      2.5797                 3.7091                 1.5323
 IR Inten    --    131.0973               197.5294                69.6674

                     79                     80                     81
                      A                      A                      A
 Frequencies --   1351.8839              1363.7117              1401.1593
 Red. masses --      2.7303                 1.7000                 1.3969
 Frc consts  --      2.9400                 1.8627                 1.6158
 IR Inten    --      0.0672                 0.5151                 8.1463

                     82                     83                     84
                      A                      A                      A
 Frequencies --   1408.4119              1449.9921              1451.6120
 Red. masses --      1.3650                 1.1290                 1.1322
 Frc consts  --      1.5953                 1.3985                 1.4056
 IR Inten    --      9.0686                46.0441                 4.3301

                     85                     86                     87
                      A                      A                      A
 Frequencies --   1461.4799              1471.5994              1476.1935
 Red. masses --      1.2068                 1.1437                 1.1099
 Frc consts  --      1.5187                 1.4593                 1.4250
 IR Inten    --     62.3983                10.2335                 8.4225

                     88                     89                     90
                      A                      A                      A
 Frequencies --   1498.2077              1500.8630              1503.6774
 Red. masses --      1.9578                 1.0852                 1.0455
 Frc consts  --      2.5892                 1.4403                 1.3928
 IR Inten    --      5.1752                 9.1028                11.6553

                     91                     92                     93
                      A                      A                      A
 Frequencies --   1508.5851              1513.2706              1519.0203
 Red. masses --      1.1551                 1.0462                 1.0625
 Frc consts  --      1.5489                 1.4115                 1.4445
 IR Inten    --     11.7775                 6.3926                27.2898

                     94                     95                     96
                      A                      A                      A
 Frequencies --   1532.0265              1543.3595              1640.8064
 Red. masses --      1.0470                 2.2223                 5.4766
 Frc consts  --      1.4479                 3.1188                 8.6871
 IR Inten    --     14.7982                16.9397                 1.6392

                     97                     98                     99
                      A                      A                      A
 Frequencies --   1662.5456              3057.5378              3059.7920
 Red. masses --      5.6407                 1.0446                 1.0439
 Frc consts  --      9.1861                 5.7534                 5.7584
 IR Inten    --      6.7211                46.9822                96.9429

                    100                    101                    102
                      A                      A                      A
 Frequencies --   3063.3843              3083.6993              3103.5499
 Red. masses --      1.0616                 1.0630                 1.0992
 Frc consts  --      5.8698                 5.9554                 6.2377
 IR Inten    --     36.8504                18.0116                40.0394

                    103                    104                    105
                      A                      A                      A
 Frequencies --   3129.0579              3141.1570              3143.7813
 Red. masses --      1.1039                 1.0574                 1.0921
 Frc consts  --      6.3679                 6.1472                 6.3592
 IR Inten    --     35.5259                 6.6119                28.5944

                    106                    107                    108
                      A                      A                      A
 Frequencies --   3143.8996              3147.3087              3187.3604
 Red. masses --      1.0596                 1.0933                 1.1039
 Frc consts  --      6.1705                 6.3807                 6.6076
 IR Inten    --     16.6553                16.0737                10.5070

                    109                    110                    111
                      A                      A                      A
 Frequencies --   3191.3388              3196.1863              3204.8315
 Red. masses --      1.0863                 1.0875                 1.0907
 Frc consts  --      6.5187                 6.5454                 6.6006
 IR Inten    --     11.2657                12.6467                17.8633

                    112                    113                    114
                      A                      A                      A
 Frequencies --   3205.2004              3212.2782              3212.4617
 Red. masses --      1.1021                 1.1113                 1.0933
 Frc consts  --      6.6710                 6.7561                 6.6477
 IR Inten    --      7.1803                 8.7265                61.5570

                    115                    116                    117
                      A                      A                      A
 Frequencies --   3218.7143              3225.2840              3522.8691
 Red. masses --      1.1118                 1.0975                 1.0763
 Frc consts  --      6.7866                 6.7268                 7.8699
 IR Inten    --      3.2230                33.0504               402.7837

 - Thermochemistry -
 -------------------
 Temperature   298.150 Kelvin.  Pressure   1.00000 Atm.
 Atom     1 has atomic number  8 and mass  15.99491

 Molecular mass:   332.08645 amu.
 Principal axes and moments of inertia in atomic units:
                           1         2         3
     Eigenvalues --  5142.925678445.90332**********
           X            0.99794   0.06256   0.01434
           Y           -0.06288   0.99775   0.02307
           Z           -0.01286  -0.02392   0.99963
 This molecule is an asymmetric top.
 Rotational symmetry number  1.
 Warning -- assumption of classical behavior for rotation
           may cause significant error
 Rotational temperatures (Kelvin)      0.01684     0.01026     0.00752
 Rotational constants (GHZ):           0.35092     0.21368     0.15669
 Zero-point vibrational energy     873486.7 (Joules/Mol)
                                  208.76834 (Kcal/Mol)
 Warning -- explicit consideration of  35 degrees of freedom as
           vibrations may cause significant error
 Vibrational temperatures:     37.49    49.41    62.98    70.01    72.43
          (Kelvin)            100.74   114.40   155.19   213.15   234.02
                              264.11   284.11   305.51   324.23   343.32
                              366.49   392.30   445.01   458.57   492.90
                              511.10   514.83   556.67   568.26   605.11
                              627.85   630.90   655.94   693.87   704.93
                              732.90   755.85   819.12   845.01   866.80
                              913.14   956.19  1027.28  1037.17  1088.88
                             1089.97  1112.98  1153.24  1176.67  1222.11
                             1251.07  1274.34  1323.61  1351.97  1366.84
                             1388.22  1414.69  1438.97  1452.30  1462.72
                             1496.03  1506.99  1523.09  1535.68  1545.75
                             1555.80  1582.48  1609.12  1628.65  1653.31
                             1697.45  1710.34  1715.07  1737.51  1747.65
                             1759.03  1769.99  1779.40  1809.72  1830.49
                             1834.49  1848.70  1910.53  1945.06  1962.08
                             2015.96  2026.39  2086.22  2088.55  2102.74
                             2117.30  2123.91  2155.59  2159.41  2163.46
                             2170.52  2177.26  2185.53  2204.24  2220.55
                             2360.75  2392.03  4399.11  4402.36  4407.53
                             4436.76  4465.32  4502.02  4519.42  4523.20
                             4523.37  4528.28  4585.90  4591.62  4598.60
                             4611.04  4611.57  4621.75  4622.02  4631.01
                             4640.46  5068.62

 Zero-point correction=                           0.332694 (Hartree/Particle)
 Thermal correction to Energy=                    0.353997
 Thermal correction to Enthalpy=                  0.354941
 Thermal correction to Gibbs Free Energy=         0.281290
 Sum of electronic and zero-point Energies=          -1713.735113
 Sum of electronic and thermal Energies=             -1713.713810
 Sum of electronic and thermal Enthalpies=           -1713.712866
 Sum of electronic and thermal Free Energies=        -1713.786516

                     E (Thermal)             CV                S
                      KCal/Mol        Cal/Mol-Kelvin    Cal/Mol-Kelvin
 Total                  222.136             81.445            155.010
 Electronic               0.000              0.000              0.000
 Translational            0.889              2.981             43.296
 Rotational               0.889              2.981             34.569
 Vibrational            220.359             75.483             77.146
 Vibration     1          0.593              1.985              6.109
 Vibration     2          0.594              1.983              5.561
 Vibration     3          0.595              1.980              5.081
 Vibration     4          0.595              1.978              4.871
 Vibration     5          0.595              1.977              4.804
 Vibration     6          0.598              1.968              4.153
 Vibration     7          0.600              1.963              3.903
 Vibration     8          0.606              1.943              3.307
 Vibration     9          0.618              1.905              2.696
 Vibration    10          0.623              1.888              2.519
 Vibration    11          0.631              1.862              2.292
 Vibration    12          0.637              1.843              2.157
 Vibration    13          0.643              1.822              2.023
 Vibration    14          0.650              1.802              1.916
 Vibration    15          0.657              1.781              1.813
 Vibration    16          0.665              1.755              1.698
 Vibration    17          0.676              1.724              1.579
 Vibration    18          0.699              1.656              1.366
 Vibration    19          0.705              1.638              1.317
 Vibration    20          0.722              1.590              1.200
 Vibration    21          0.731              1.565              1.143
 Vibration    22          0.733              1.559              1.132
 Vibration    23          0.755              1.498              1.012
 Vibration    24          0.762              1.481              0.981
 Vibration    25          0.783              1.426              0.890
 Vibration    26          0.797              1.391              0.838
 Vibration    27          0.799              1.386              0.831
 Vibration    28          0.814              1.348              0.778
 Vibration    29          0.838              1.289              0.704
 Vibration    30          0.846              1.272              0.684
 Vibration    31          0.865              1.229              0.635
 Vibration    32          0.880              1.194              0.598
 Vibration    33          0.925              1.098              0.506
 Vibration    34          0.944              1.059              0.472
 Vibration    35          0.961              1.027              0.445

                           ! Non-Optimized Parameters !
 Normal termination of Gaussian 16 at Tue Sep 22 07:11:18 2020.

 ----------------------------------------------------------------------
 #p b3lyp/6-31G(d) scrf=(iefpcm,read,solvent=water) geom=allcheck guess
 =read
 ----------------------------------------------------------------------

 Structure from the checkpoint file:  "SM40.n.7.pdb.xyz.mst.n.w.chk"
 ----------------
 SM40.n.7.pdb.xyz
 ----------------
 Charge =  0 Multiplicity = 1

 SCF Done:  E(RB3LYP) =  -1714.06776628     A.U. after    6 cycles
 Normal termination of Gaussian 16 at Tue Sep 22 07:12:12 2020.

 -----------------------------
 #p B3LYP/6-31G* geom=allcheck
 -----------------------------

 Structure from the checkpoint file:  "SM40.n.7.pdb.xyz.mst.n.w.chk"
 ----------------
 SM40.n.7.pdb.xyz
 ----------------
 Charge =  0 Multiplicity = 1

 SCF Done:  E(RB3LYP) =  -1714.04066242     A.U. after   15 cycles
 Normal termination of Gaussian 16 at Tue Sep 22 07:13:29 2020.
 Gaussian 16:  ES64L-G16RevB.01 20-Dec-2017

 ----------------------------------------------------------------------
 #p mp2/aug-cc-pVDZ scf=(MaxCycle=2000,NoVarAcc,NoIncFock) maxdisk=120G
 B geom=allcheck
 ----------------------------------------------------------------------

 Structure from the checkpoint file:  "SM40.n.7.pdb.xyz.mst.n.w.chk"
 ----------------
 SM40.n.7.pdb.xyz
 ----------------
 Charge =  0 Multiplicity = 1

                         Standard orientation:
 ---------------------------------------------------------------------
 Center     Atomic      Atomic             Coordinates (Angstroms)
 Number     Number       Type             X           Y           Z
 ---------------------------------------------------------------------
      1          8           0        1.609892    1.499993   -1.486616
      2         16           0        0.447748    1.760026   -0.624123
      3          7           0       -0.173789    0.364707    0.046748
      4          6           0        0.614232   -0.855802    0.281142
      5          6           0        1.933238   -0.590622    1.077995
      6         16           0        2.855263   -1.650243   -0.082033
      7          6           0        1.279722   -1.510333   -0.988399
      8          8           0        3.999432   -0.983367   -0.733049
      9          8           0        3.057382   -3.010119    0.463479
     10          6           0       -0.266942   -1.862862    1.048588
     11          6           0       -1.489582   -2.434531    0.303887
     12          6           0       -2.655222   -1.486486    0.100066
     13          6           0       -3.097293   -1.163519   -1.189784
     14          6           0       -4.183141   -0.305434   -1.384997
     15          6           0       -4.847771    0.240563   -0.287201
     16          6           0       -4.421301   -0.078485    1.005282
     17          6           0       -3.337190   -0.933836    1.195819
     18          7           0        1.057357    2.524310    0.742473
     19          6           0        2.046350    3.578668    0.452532
     20          6           0        0.029520    2.933340    1.713195
     21          8           0       -0.715270    2.452710   -1.199722
     22          1           0       -1.085687    0.182488   -0.369745
     23          1           0        1.945751   -0.950008    2.105853
     24          1           0        2.286722    0.438557    1.026723
     25          1           0        0.875108   -2.469136   -1.309807
     26          1           0        1.393022   -0.821737   -1.824706
     27          1           0       -0.580898   -1.389656    1.983662
     28          1           0        0.380908   -2.701236    1.322293
     29          1           0       -1.833140   -3.297283    0.885736
     30          1           0       -1.176043   -2.829759   -0.668105
     31          1           0       -2.584965   -1.591951   -2.046476
     32          1           0       -4.507734   -0.068791   -2.393194
     33          1           0       -5.691714    0.906590   -0.434384
     34          1           0       -4.936694    0.337452    1.865780
     35          1           0       -3.018779   -1.179716    2.205221
     36          1           0        2.793470    3.193233   -0.237993
     37          1           0        2.528713    3.833655    1.397525
     38          1           0        1.585459    4.481730    0.035074
     39          1           0       -0.641566    2.096475    1.902871
     40          1           0       -0.547113    3.798163    1.365863
     41          1           0        0.542828    3.193570    2.640300
 ---------------------------------------------------------------------

 SCF Done:  E(RHF) =  -1707.25009528     A.U. after   16 cycles
 E2 =    -0.3326615263D+01 EUMP2 =    -0.17105767105461D+04

 The electronic state is 1-A.
 Alpha  occ. eigenvalues --  -92.25247 -92.19403 -20.57055 -20.56933 -20.55413
 Alpha  occ. eigenvalues --  -20.55203 -15.62531 -15.62484 -11.34197 -11.28964
 Alpha  occ. eigenvalues --  -11.28740 -11.28651 -11.28336 -11.27019 -11.26933
 Alpha  occ. eigenvalues --  -11.26591 -11.26192 -11.26077 -11.25907 -11.25899
 Alpha  occ. eigenvalues --  -11.25694  -9.21750  -9.16666  -6.90303  -6.90254
 Alpha  occ. eigenvalues --   -6.90208  -6.85155  -6.85064  -6.84999  -1.47875
 Alpha  occ. eigenvalues --   -1.43462  -1.34900  -1.32192  -1.27560  -1.25766
 Alpha  occ. eigenvalues --   -1.17721  -1.14727  -1.09011  -1.03488  -1.02228
 Alpha  occ. eigenvalues --   -0.99070  -0.98206  -0.96682  -0.92456  -0.86257
 Alpha  occ. eigenvalues --   -0.84680  -0.82240  -0.81258  -0.78047  -0.73915
 Alpha  occ. eigenvalues --   -0.72704  -0.71521  -0.70701  -0.68421  -0.67482
 Alpha  occ. eigenvalues --   -0.66789  -0.65726  -0.65199  -0.64670  -0.63020
 Alpha  occ. eigenvalues --   -0.62604  -0.61767  -0.61709  -0.60673  -0.60377
 Alpha  occ. eigenvalues --   -0.59157  -0.58751  -0.57813  -0.56461  -0.55959
 Alpha  occ. eigenvalues --   -0.54874  -0.54831  -0.52612  -0.52003  -0.50999
 Alpha  occ. eigenvalues --   -0.50394  -0.50291  -0.49814  -0.48991  -0.48124
 Alpha  occ. eigenvalues --   -0.47722  -0.46951  -0.45804  -0.44447  -0.41693
 Alpha  occ. eigenvalues --   -0.41512  -0.35583  -0.34632
 Alpha virt. eigenvalues --    0.02094   0.03066   0.03301   0.03532   0.04440
 Alpha virt. eigenvalues --    0.04699   0.05185   0.05301   0.05740   0.06696
 Alpha virt. eigenvalues --    0.07090   0.07219   0.07566   0.07689   0.07857

 Mulliken charges:
               1
     1  O   -1.224232
     2  S    3.255234
     3  N   -1.251332
     4  C    0.591801
     5  C    0.208069
     6  S    3.016160
     7  C    0.209632
     8  O   -1.259196
     9  O   -1.287833
    10  C    0.640765
    11  C    0.580898
    12  C    0.672520
    13  C    0.851342
    14  C    0.007871
    15  C    0.802112
    16  C    0.024777
    17  C    0.594631
    18  N   -1.123785
    19  C    0.837934
    20  C    0.825112
    21  O   -1.193938
    22  H   -0.107363
    23  H   -0.283682
    24  H   -0.341857
    25  H   -0.366747
    26  H   -0.270690
    27  H   -0.179101
    28  H   -0.106042
    29  H   -0.100887
    30  H   -0.244409
    31  H   -0.728879
    32  H   -0.487045
    33  H   -0.459890
    34  H   -0.509755
    35  H   -0.754783
    36  H   -0.157757
    37  H   -0.152780
    38  H   -0.077644
    39  H   -0.232006
    40  H   -0.031866
    41  H   -0.185362
 Sum of Mulliken charges =  -0.00000

 Dipole moment (field-independent basis, Debye):
    X=             -6.3088    Y=              1.8522    Z=              4.4458  Tot=              7.9371
 Quadrupole moment (field-independent basis, Debye-Ang):
   XX=           -164.2962   YY=           -144.0956   ZZ=           -135.4284
   XY=             16.8648   XZ=              6.3276   YZ=             13.1952

 Normal termination of Gaussian 16 at Tue Sep 22 08:51:37 2020.
