 Gaussian 16, Revision B.01,

 ----------------------------------------------------------------------
 #p b3lyp/6-31G(d) opt freq NoSymm scf=(MaxCycle=2000,NoVarAcc,NoIncFoc
 k) scrf=(iefpcm,read,solvent=water)
 ----------------------------------------------------------------------

 -----------------
 SM40.a.13.pdb.xyz
 -----------------
 Symbolic Z-matrix:
 Charge = -1 Multiplicity = 1

 SCF Done:  E(RB3LYP) =  -1713.58557499     A.U. after   13 cycles
 SCF Done:  E(RB3LYP) =  -1713.58378691     A.U. after   11 cycles
 SCF Done:  E(RB3LYP) =  -1713.58432584     A.U. after   11 cycles
 SCF Done:  E(RB3LYP) =  -1713.58557119     A.U. after    7 cycles
 SCF Done:  E(RB3LYP) =  -1713.58520159     A.U. after   10 cycles
 SCF Done:  E(RB3LYP) =  -1713.58517257     A.U. after   10 cycles
 SCF Done:  E(RB3LYP) =  -1713.58551412     A.U. after   10 cycles
 SCF Done:  E(RB3LYP) =  -1713.58556824     A.U. after    9 cycles
 SCF Done:  E(RB3LYP) =  -1713.58521993     A.U. after   11 cycles
 SCF Done:  E(RB3LYP) =  -1713.58555651     A.U. after   10 cycles
 SCF Done:  E(RB3LYP) =  -1713.58556895     A.U. after    9 cycles
 SCF Done:  E(RB3LYP) =  -1713.58521564     A.U. after   11 cycles
 SCF Done:  E(RB3LYP) =  -1713.58521859     A.U. after    7 cycles
 SCF Done:  E(RB3LYP) =  -1713.58554896     A.U. after   10 cycles
 SCF Done:  E(RB3LYP) =  -1713.58556898     A.U. after    9 cycles
 SCF Done:  E(RB3LYP) =  -1713.58521725     A.U. after   11 cycles
 Optimization completed.
    -- Stationary point found.
 Normal termination of Gaussian 16 at Thu Sep 24 02:38:39 2020.

 --------------------------------------------------------------------
 #P Geom=AllCheck Guess=TCheck SCRF=Check GenChk RB3LYP/6-31G(d) Freq
 --------------------------------------------------------------------

 Structure from the checkpoint file:  "SM40.a.13.pdb.xyz.mst.a.w.chk"
 -----------------
 SM40.a.13.pdb.xyz
 -----------------
 Charge = -1 Multiplicity = 1

 SCF Done:  E(RB3LYP) =  -1713.58521725     A.U. after    1 cycles

  Exact polarizability: 280.387 -29.094 251.973  20.443  27.859 235.203
 Approx polarizability: 307.171 -30.774 275.544  20.154  27.744 276.247

                      1                      2                      3
                      A                      A                      A
 Frequencies --     13.1241                20.3549                37.7450
 Red. masses --      5.9105                 4.9878                 6.8314
 Frc consts  --      0.0006                 0.0012                 0.0057
 IR Inten    --      4.9499                 0.0804                 1.1646

                      4                      5                      6
                      A                      A                      A
 Frequencies --     46.7183                48.5319                56.9320
 Red. masses --      4.4323                 4.8030                 3.2496
 Frc consts  --      0.0057                 0.0067                 0.0062
 IR Inten    --      0.2314                 0.5422                 5.7365

                      7                      8                      9
                      A                      A                      A
 Frequencies --     81.5186               112.1772               137.8056
 Red. masses --      3.6420                 5.7247                 7.1089
 Frc consts  --      0.0143                 0.0424                 0.0795
 IR Inten    --      3.8739                 2.6564                 0.9758

                     10                     11                     12
                      A                      A                      A
 Frequencies --    153.5749               182.8977               189.9241
 Red. masses --      2.9588                 3.0869                 2.0847
 Frc consts  --      0.0411                 0.0608                 0.0443
 IR Inten    --     12.8468                18.2485                 4.1517

                     13                     14                     15
                      A                      A                      A
 Frequencies --    197.1692               218.3576               240.6941
 Red. masses --      2.5648                 2.6674                 1.5765
 Frc consts  --      0.0587                 0.0749                 0.0538
 IR Inten    --      4.8302                 8.4790                 6.3562

                     16                     17                     18
                      A                      A                      A
 Frequencies --    266.6072               285.2869               294.8047
 Red. masses --      3.6669                 3.9128                 2.6725
 Frc consts  --      0.1536                 0.1876                 0.1368
 IR Inten    --      4.0890                 6.8553                 1.8355

                     19                     20                     21
                      A                      A                      A
 Frequencies --    323.7650               332.1524               358.3124
 Red. masses --      2.6312                 3.6191                 2.6056
 Frc consts  --      0.1625                 0.2352                 0.1971
 IR Inten    --      3.8811                44.9987                 4.4482

                     22                     23                     24
                      A                      A                      A
 Frequencies --    379.6658               394.8196               400.3450
 Red. masses --      3.1001                 2.9480                 6.0205
 Frc consts  --      0.2633                 0.2707                 0.5685
 IR Inten    --     13.1280                14.8575                37.7965

                     25                     26                     27
                      A                      A                      A
 Frequencies --    419.8886               436.1505               445.1610
 Red. masses --      2.9853                 4.0227                 3.3306
 Frc consts  --      0.3101                 0.4509                 0.3889
 IR Inten    --      0.4895                21.0673                 1.7284

                     28                     29                     30
                      A                      A                      A
 Frequencies --    484.2620               486.0296               508.8230
 Red. masses --      3.8825                 5.5669                 4.1282
 Frc consts  --      0.5364                 0.7748                 0.6297
 IR Inten    --     21.7172                 1.7702                19.3794

                     31                     32                     33
                      A                      A                      A
 Frequencies --    535.9249               566.3714               575.4192
 Red. masses --      6.5548                 3.3289                 6.1781
 Frc consts  --      1.1092                 0.6291                 1.2052
 IR Inten    --     22.1429                 3.0016                28.7112

                     34                     35                     36
                      A                      A                      A
 Frequencies --    598.8753               634.1247               672.1163
 Red. masses --      5.4510                 6.3773                 4.5673
 Frc consts  --      1.1519                 1.5109                 1.2156
 IR Inten    --     80.2548                 0.5940               172.3040

                     37                     38                     39
                      A                      A                      A
 Frequencies --    702.8545               717.8305               739.2969
 Red. masses --      7.5150                 2.1979                 4.5625
 Frc consts  --      2.1873                 0.6673                 1.4692
 IR Inten    --    158.5444                28.0886                34.8573

                     40                     41                     42
                      A                      A                      A
 Frequencies --    756.4323               775.4737               794.9440
 Red. masses --      1.8283                 2.9983                 2.8667
 Frc consts  --      0.6164                 1.0623                 1.0673
 IR Inten    --     59.6539                16.2828                 1.5290

                     43                     44                     45
                      A                      A                      A
 Frequencies --    828.4436               846.7534               868.2046
 Red. masses --      1.6086                 3.4898                 1.2625
 Frc consts  --      0.6505                 1.4742                 0.5607
 IR Inten    --      4.2125                87.7538                 1.0970

                     46                     47                     48
                      A                      A                      A
 Frequencies --    871.8946               913.0164               937.0880
 Red. masses --      2.5962                 2.0152                 2.6074
 Frc consts  --      1.1628                 0.9897                 1.3490
 IR Inten    --     33.1681                 3.4931               154.3531

                     49                     50                     51
                      A                      A                      A
 Frequencies --    940.6660               975.0115               979.6079
 Red. masses --      1.9950                 2.1724                 1.3671
 Frc consts  --      1.0401                 1.2168                 0.7729
 IR Inten    --     93.8980                 5.8613                 1.2761

                     52                     53                     54
                      A                      A                      A
 Frequencies --   1006.9359              1008.1358              1016.0994
 Red. masses --      1.3114                 1.7257                 5.8711
 Frc consts  --      0.7834                 1.0334                 3.5714
 IR Inten    --      9.7556                50.8127                 4.9751

                     55                     56                     57
                      A                      A                      A
 Frequencies --   1022.2267              1039.9796              1056.3046
 Red. masses --      2.4820                 1.5675                 2.3668
 Frc consts  --      1.5281                 0.9989                 1.5560
 IR Inten    --     23.6490                64.5719                69.4641

                     58                     59                     60
                      A                      A                      A
 Frequencies --   1058.9827              1061.9645              1069.5442
 Red. masses --      2.6953                 1.5998                 2.8796
 Frc consts  --      1.7809                 1.0630                 1.9408
 IR Inten    --    204.1667                44.2044               216.6268

                     61                     62                     63
                      A                      A                      A
 Frequencies --   1081.3990              1108.4901              1126.4156
 Red. masses --      3.8512                 1.9376                 1.2420
 Frc consts  --      2.6535                 1.4028                 0.9284
 IR Inten    --    381.8557               122.5039                14.4093

                     64                     65                     66
                      A                      A                      A
 Frequencies --   1139.7883              1152.2083              1183.9749
 Red. masses --      3.7057                 4.3005                 1.4159
 Frc consts  --      2.8364                 3.3638                 1.1694
 IR Inten    --    151.3295               338.6073                 3.3423

                     67                     68                     69
                      A                      A                      A
 Frequencies --   1185.3923              1190.2313              1203.7717
 Red. masses --      1.3899                 1.1089                 1.3814
 Frc consts  --      1.1507                 0.9256                 1.1794
 IR Inten    --     41.2575                 0.8793                11.6441

                     70                     71                     72
                      A                      A                      A
 Frequencies --   1205.2187              1216.2172              1228.0154
 Red. masses --      1.2158                 3.5137                 2.4550
 Frc consts  --      1.0405                 3.0623                 2.1812
 IR Inten    --      8.8922               115.2073                10.6797

                     73                     74                     75
                      A                      A                      A
 Frequencies --   1236.4017              1250.2010              1271.6123
 Red. masses --      1.7202                 8.4985                 1.8498
 Frc consts  --      1.5493                 7.8262                 1.7623
 IR Inten    --     89.7293               421.5615                12.0559

                     76                     77                     78
                      A                      A                      A
 Frequencies --   1279.9627              1293.8667              1350.0221
 Red. masses --      1.9200                 1.4146                 2.2948
 Frc consts  --      1.8533                 1.3953                 2.4642
 IR Inten    --     58.1515                84.2862                 3.8167

                     79                     80                     81
                      A                      A                      A
 Frequencies --   1363.3986              1377.4202              1394.7792
 Red. masses --      1.9977                 1.4134                 1.4425
 Frc consts  --      2.1879                 1.5800                 1.6534
 IR Inten    --      0.7135                 9.0228                 8.5837

                     82                     83                     84
                      A                      A                      A
 Frequencies --   1442.4748              1448.9825              1473.1848
 Red. masses --      1.1450                 1.0956                 1.1651
 Frc consts  --      1.4036                 1.3553                 1.4898
 IR Inten    --      0.9869                20.1710                 2.4985

                     85                     86                     87
                      A                      A                      A
 Frequencies --   1474.8698              1489.8914              1498.9280
 Red. masses --      1.0957                 1.2717                 1.2528
 Frc consts  --      1.4042                 1.6632                 1.6584
 IR Inten    --     14.3309                 7.2249                 9.1314

                     88                     89                     90
                      A                      A                      A
 Frequencies --   1500.1863              1505.6222              1512.3488
 Red. masses --      1.0492                 1.4432                 1.0519
 Frc consts  --      1.3912                 1.9275                 1.4175
 IR Inten    --     15.2292                 5.6951                 7.0984

                     91                     92                     93
                      A                      A                      A
 Frequencies --   1516.9856              1532.2509              1542.6061
 Red. masses --      1.0451                 1.0464                 2.2491
 Frc consts  --      1.4170                 1.4474                 3.1533
 IR Inten    --     11.5481                18.8779                17.0778

                     94                     95                     96
                      A                      A                      A
 Frequencies --   1641.5272              1661.6966              3018.0517
 Red. masses --      5.3599                 5.6935                 1.0538
 Frc consts  --      8.5095                 9.2626                 5.6552
 IR Inten    --      1.3062                 9.7265                95.8607

                     97                     98                     99
                      A                      A                      A
 Frequencies --   3028.1326              3051.4575              3066.8630
 Red. masses --      1.0504                 1.0673                 1.0610
 Frc consts  --      5.6747                 5.8551                 5.8795
 IR Inten    --    102.6672                30.9907                67.0730

                    100                    101                    102
                      A                      A                      A
 Frequencies --   3105.2090              3118.9611              3119.7825
 Red. masses --      1.1025                 1.0580                 1.0859
 Frc consts  --      6.2635                 6.0641                 6.2274
 IR Inten    --     33.6983                 2.8106                29.4630

                    103                    104                    105
                      A                      A                      A
 Frequencies --   3121.2246              3121.7632              3146.8061
 Red. masses --      1.0857                 1.0953                 1.0563
 Frc consts  --      6.2320                 6.2891                 6.1627
 IR Inten    --     59.3983                57.2964                15.5070

                    106                    107                    108
                      A                      A                      A
 Frequencies --   3174.0830              3186.6081              3189.1227
 Red. masses --      1.1015                 1.0874                 1.1115
 Frc consts  --      6.5386                 6.5057                 6.6606
 IR Inten    --     21.3846                18.4369                 2.5683

                    109                    110                    111
                      A                      A                      A
 Frequencies --   3192.8865              3196.1866              3203.4178
 Red. masses --      1.0864                 1.0988                 1.0897
 Frc consts  --      6.5254                 6.6133                 6.5885
 IR Inten    --     12.3700                12.9073                11.6908

                    112                    113                    114
                      A                      A                      A
 Frequencies --   3209.4956              3222.8749              3231.1864
 Red. masses --      1.0939                 1.0976                 1.1119
 Frc consts  --      6.6392                 6.7169                 6.8397
 IR Inten    --     79.9964                34.7931                 9.2114

 - Thermochemistry -
 -------------------
 Temperature   298.150 Kelvin.  Pressure   1.00000 Atm.
 Atom     1 has atomic number  8 and mass  15.99491

 Molecular mass:   331.07863 amu.
 Principal axes and moments of inertia in atomic units:
                           1         2         3
     Eigenvalues --  5259.827198663.33644**********
           X            0.99899  -0.04098  -0.01832
           Y            0.04130   0.99899   0.01752
           Z            0.01758  -0.01826   0.99968
 This molecule is an asymmetric top.
 Rotational symmetry number  1.
 Warning -- assumption of classical behavior for rotation
           may cause significant error
 Rotational temperatures (Kelvin)      0.01647     0.01000     0.00739
 Rotational constants (GHZ):           0.34312     0.20832     0.15394
 Zero-point vibrational energy     836839.1 (Joules/Mol)
                                  200.00935 (Kcal/Mol)
 Warning -- explicit consideration of  34 degrees of freedom as
           vibrations may cause significant error
 Vibrational temperatures:     18.88    29.29    54.31    67.22    69.83
          (Kelvin)             81.91   117.29   161.40   198.27   220.96
                              263.15   273.26   283.68   314.17   346.31
                              383.59   410.46   424.16   465.83   477.89
                              515.53   546.25   568.06   576.01   604.13
                              627.52   640.49   696.74   699.29   732.08
                              771.08   814.88   827.90   861.65   912.36
                              967.03  1011.25  1032.80  1063.68  1088.34
                             1115.73  1143.75  1191.95  1218.29  1249.15
                             1254.46  1313.63  1348.26  1353.41  1402.82
                             1409.44  1448.76  1450.48  1461.94  1470.76
                             1496.30  1519.79  1523.64  1527.93  1538.84
                             1555.89  1594.87  1620.66  1639.90  1657.77
                             1703.48  1705.52  1712.48  1731.96  1734.04
                             1749.87  1766.84  1778.91  1798.76  1829.57
                             1841.58  1861.59  1942.38  1961.63  1981.80
                             2006.78  2075.40  2084.76  2119.58  2122.01
                             2143.62  2156.62  2158.43  2166.25  2175.93
                             2182.60  2204.57  2219.47  2361.79  2390.81
                             4342.30  4356.81  4390.37  4412.53  4467.70
                             4487.49  4488.67  4490.75  4491.52  4527.55
                             4566.80  4584.82  4588.44  4593.85  4598.60
                             4609.00  4617.75  4637.00  4648.96

 Zero-point correction=                           0.318735 (Hartree/Particle)
 Thermal correction to Energy=                    0.339935
 Thermal correction to Enthalpy=                  0.340879
 Thermal correction to Gibbs Free Energy=         0.265905
 Sum of electronic and zero-point Energies=          -1713.266482
 Sum of electronic and thermal Energies=             -1713.245282
 Sum of electronic and thermal Enthalpies=           -1713.244338
 Sum of electronic and thermal Free Energies=        -1713.319312

                     E (Thermal)             CV                S
                      KCal/Mol        Cal/Mol-Kelvin    Cal/Mol-Kelvin
 Total                  213.313             80.312            157.797
 Electronic               0.000              0.000              0.000
 Translational            0.889              2.981             43.287
 Rotational               0.889              2.981             34.634
 Vibrational            211.535             74.350             79.876
 Vibration     1          0.593              1.987              7.471
 Vibration     2          0.593              1.986              6.599
 Vibration     3          0.594              1.982              5.374
 Vibration     4          0.595              1.979              4.952
 Vibration     5          0.595              1.978              4.876
 Vibration     6          0.596              1.975              4.561
 Vibration     7          0.600              1.962              3.854
 Vibration     8          0.607              1.939              3.231
 Vibration     9          0.614              1.916              2.834
 Vibration    10          0.619              1.899              2.627
 Vibration    11          0.630              1.863              2.299
 Vibration    12          0.633              1.854              2.229
 Vibration    13          0.637              1.844              2.159
 Vibration    14          0.646              1.813              1.973
 Vibration    15          0.658              1.778              1.798
 Vibration    16          0.672              1.734              1.618
 Vibration    17          0.683              1.701              1.502
 Vibration    18          0.689              1.683              1.446
 Vibration    19          0.708              1.628              1.291
 Vibration    20          0.714              1.611              1.250
 Vibration    21          0.733              1.558              1.129
 Vibration    22          0.750              1.514              1.040
 Vibration    23          0.762              1.481              0.982
 Vibration    24          0.766              1.469              0.961
 Vibration    25          0.783              1.427              0.892
 Vibration    26          0.797              1.391              0.839
 Vibration    27          0.805              1.372              0.811
 Vibration    28          0.840              1.285              0.699
 Vibration    29          0.842              1.281              0.694
 Vibration    30          0.864              1.230              0.636
 Vibration    31          0.891              1.171              0.574
 Vibration    32          0.922              1.104              0.511
 Vibration    33          0.932              1.084              0.494
 Vibration    34          0.957              1.034              0.452

                           ! Non-Optimized Parameters !
 Normal termination of Gaussian 16 at Thu Sep 24 03:00:03 2020.

 ----------------------------------------------------------------------
 #p b3lyp/6-31G(d) scrf=(iefpcm,read,solvent=water) geom=allcheck guess
 =read
 ----------------------------------------------------------------------

 Structure from the checkpoint file:  "SM40.a.13.pdb.xyz.mst.a.w.chk"
 -----------------
 SM40.a.13.pdb.xyz
 -----------------
 Charge = -1 Multiplicity = 1

 SCF Done:  E(RB3LYP) =  -1713.58522026     A.U. after    6 cycles
 Normal termination of Gaussian 16 at Thu Sep 24 03:01:04 2020.

 -----------------------------
 #p B3LYP/6-31G* geom=allcheck
 -----------------------------

 Structure from the checkpoint file:  "SM40.a.13.pdb.xyz.mst.a.w.chk"
 -----------------
 SM40.a.13.pdb.xyz
 -----------------
 Charge = -1 Multiplicity = 1

 SCF Done:  E(RB3LYP) =  -1713.49114796     A.U. after   15 cycles
 Normal termination of Gaussian 16 at Thu Sep 24 03:02:22 2020.
 Gaussian 16:  ES64L-G16RevB.01 20-Dec-2017

 ----------------------------------------------------------------------
 #p mp2/aug-cc-pVDZ scf=(MaxCycle=2000,NoVarAcc,NoIncFock) maxdisk=120G
 B geom=allcheck
 ----------------------------------------------------------------------

 Structure from the checkpoint file:  "SM40.a.13.pdb.xyz.mst.a.w.chk"
 -----------------
 SM40.a.13.pdb.xyz
 -----------------
 Charge = -1 Multiplicity = 1

                         Standard orientation:
 ---------------------------------------------------------------------
 Center     Atomic      Atomic             Coordinates (Angstroms)
 Number     Number       Type             X           Y           Z
 ---------------------------------------------------------------------
      1          8           0        2.298981    0.147575   -1.386176
      2         16           0        2.479064   -0.259160    0.048408
      3          7           0        1.143765   -0.359207    0.892691
      4          6           0        0.162841    0.701151    0.774023
      5          6           0       -0.510696    0.886099   -0.650371
      6         16           0       -0.336964    2.684643   -0.509094
      7          6           0        0.696703    2.188198    0.896957
      8          8           0        0.402249    3.329232   -1.618791
      9          8           0       -1.595358    3.331746   -0.062215
     10          6           0       -0.894926    0.487768    1.876778
     11          6           0       -1.568802   -0.895606    1.929226
     12          6           0       -2.547007   -1.208171    0.815795
     13          6           0       -2.293717   -2.245676   -0.090412
     14          6           0       -3.195534   -2.547858   -1.113544
     15          6           0       -4.375113   -1.813951   -1.245546
     16          6           0       -4.646699   -0.781945   -0.342555
     17          6           0       -3.743100   -0.486939    0.678429
     18          7           0        3.002768   -1.893121    0.118722
     19          6           0        2.164347   -2.799167   -0.674989
     20          6           0        4.424705   -2.047590   -0.215187
     21          8           0        3.585082    0.503052    0.703240
     22          1           0       -1.538984    0.551617   -0.762614
     23          1           0        0.140362    0.527607   -1.445564
     24          1           0        0.459897    2.718560    1.820866
     25          1           0        1.753534    2.300200    0.651534
     26          1           0       -1.654413    1.271994    1.789320
     27          1           0       -0.386276    0.648391    2.833388
     28          1           0       -2.098076   -0.956966    2.888038
     29          1           0       -0.789160   -1.660913    1.949980
     30          1           0       -1.379754   -2.823238    0.012157
     31          1           0       -2.975923   -3.355663   -1.804682
     32          1           0       -5.078295   -2.045000   -2.039362
     33          1           0       -5.565597   -0.210656   -0.430347
     34          1           0       -3.969095    0.313419    1.378158
     35          1           0        1.117458   -2.656552   -0.406730
     36          1           0        2.454495   -3.824752   -0.435102
     37          1           0        2.283499   -2.644402   -1.756380
     38          1           0        5.019750   -1.384080    0.408991
     39          1           0        4.639072   -1.837990   -1.273630
     40          1           0        4.702516   -3.083724   -0.007043
 ---------------------------------------------------------------------

 SCF Done:  E(RHF) =  -1706.70515430     A.U. after   16 cycles
 E2 =    -0.3338364689D+01 EUMP2 =    -0.17100435189873D+04

 The electronic state is 1-A.
 Alpha  occ. eigenvalues --  -92.06661 -92.05920 -20.42829 -20.42461 -20.39277
 Alpha  occ. eigenvalues --  -20.38765 -15.46829 -15.38453 -11.18259 -11.16352
 Alpha  occ. eigenvalues --  -11.16292 -11.16179 -11.16048 -11.15499 -11.15358
 Alpha  occ. eigenvalues --  -11.15152 -11.14865 -11.14710 -11.13808 -11.13636
 Alpha  occ. eigenvalues --  -11.12821  -9.03295  -9.03168  -6.71787  -6.71701
 Alpha  occ. eigenvalues --   -6.71687  -6.71669  -6.71624  -6.71600  -1.30566
 Alpha  occ. eigenvalues --   -1.28819  -1.19402  -1.15500  -1.10602  -1.07781
 Alpha  occ. eigenvalues --   -1.06892  -0.98120  -0.96938  -0.93326  -0.90038
 Alpha  occ. eigenvalues --   -0.84961  -0.83599  -0.81342  -0.78163  -0.74564
 Alpha  occ. eigenvalues --   -0.72352  -0.69090  -0.66212  -0.61889  -0.60782
 Alpha  occ. eigenvalues --   -0.57264  -0.55629  -0.55347  -0.54944  -0.53698
 Alpha  occ. eigenvalues --   -0.53371  -0.52242  -0.51107  -0.50537  -0.50227
 Alpha  occ. eigenvalues --   -0.49687  -0.48343  -0.47774  -0.46752  -0.46250
 Alpha  occ. eigenvalues --   -0.44931  -0.44127  -0.43983  -0.42256  -0.41340
 Alpha  occ. eigenvalues --   -0.40936  -0.40459  -0.38890  -0.38726  -0.36986
 Alpha  occ. eigenvalues --   -0.36337  -0.35454  -0.34648  -0.33190  -0.33098
 Alpha  occ. eigenvalues --   -0.32352  -0.30475  -0.29309  -0.27102  -0.25522
 Alpha  occ. eigenvalues --   -0.25247  -0.23907  -0.21044
 Alpha virt. eigenvalues --    0.09457   0.10299   0.10549   0.11330   0.11842
 Alpha virt. eigenvalues --    0.12496   0.13204   0.13706   0.13785   0.14209
 Alpha virt. eigenvalues --    0.15249   0.15449   0.15791   0.16358   0.16393

 Mulliken charges:
               1
     1  O   -1.408741
     2  S    3.553393
     3  N   -1.967303
     4  C    0.497156
     5  C    0.352492
     6  S    2.948492
     7  C    0.447699
     8  O   -1.290656
     9  O   -1.340462
    10  C    0.384860
    11  C    0.421796
    12  C    0.606242
    13  C    0.890664
    14  C   -0.042194
    15  C    0.752646
    16  C    0.141050
    17  C    0.564958
    18  N   -1.211127
    19  C    0.911688
    20  C    0.790853
    21  O   -1.306654
    22  H   -0.314855
    23  H   -0.337262
    24  H   -0.287911
    25  H   -0.235794
    26  H   -0.169029
    27  H   -0.149068
    28  H   -0.108466
    29  H   -0.256221
    30  H   -0.674077
    31  H   -0.525139
    32  H   -0.467115
    33  H   -0.506132
    34  H   -0.695116
    35  H   -0.387871
    36  H   -0.221157
    37  H    0.003556
    38  H   -0.154135
    39  H   -0.034418
    40  H   -0.176641
 Sum of Mulliken charges =  -1.00000

 Dipole moment (field-independent basis, Debye):
    X=             -5.8993    Y=             -7.3598    Z=              1.9806  Tot=              9.6380
 Quadrupole moment (field-independent basis, Debye-Ang):
   XX=           -179.0200   YY=           -174.4135   ZZ=           -154.8590
   XY=             -2.7119   XZ=              0.8192   YZ=             16.8495

 Normal termination of Gaussian 16 at Thu Sep 24 04:32:57 2020.
