 Gaussian 16, Revision B.01,

 ----------------------------------------------------------------------
 #p b3lyp/6-31G(d) opt freq NoSymm scf=(MaxCycle=2000,NoVarAcc,NoIncFoc
 k) scrf=(iefpcm,read,solvent=water)
 ----------------------------------------------------------------------

 --------------------
 SM40_38w.a.2.pdb.xyz
 --------------------
 Symbolic Z-matrix:
 Charge = -1 Multiplicity = 1

 SCF Done:  E(RB3LYP) =  -1713.54648032     A.U. after   13 cycles
 SCF Done:  E(RB3LYP) =  -1713.54475316     A.U. after   11 cycles
 SCF Done:  E(RB3LYP) =  -1713.54528972     A.U. after   11 cycles
 SCF Done:  E(RB3LYP) =  -1713.54647304     A.U. after    7 cycles
 SCF Done:  E(RB3LYP) =  -1713.54615769     A.U. after   10 cycles
 SCF Done:  E(RB3LYP) =  -1713.54617105     A.U. after    9 cycles
 SCF Done:  E(RB3LYP) =  -1713.54638869     A.U. after   10 cycles
 SCF Done:  E(RB3LYP) =  -1713.54647216     A.U. after    9 cycles
 SCF Done:  E(RB3LYP) =  -1713.54647193     A.U. after    5 cycles
 SCF Done:  E(RB3LYP) =  -1713.54647188     A.U. after    4 cycles
 SCF Done:  E(RB3LYP) =  -1713.54647002     A.U. after    9 cycles
 SCF Done:  E(RB3LYP) =  -1713.54617257     A.U. after   10 cycles
 SCF Done:  E(RB3LYP) =  -1713.54616988     A.U. after    6 cycles
 SCF Done:  E(RB3LYP) =  -1713.54645149     A.U. after   10 cycles
 SCF Done:  E(RB3LYP) =  -1713.54646997     A.U. after    9 cycles
 SCF Done:  E(RB3LYP) =  -1713.54617030     A.U. after   10 cycles
 Optimization completed.
    -- Stationary point found.
 Normal termination of Gaussian 16 at Thu Sep 24 02:50:42 2020.

 --------------------------------------------------------------------
 #P Geom=AllCheck Guess=TCheck SCRF=Check GenChk RB3LYP/6-31G(d) Freq
 --------------------------------------------------------------------

 Structure from the checkpoint file:  "SM40_38w.a.2.pdb.xyz.mst.a.w.chk"
 --------------------
 SM40_38w.a.2.pdb.xyz
 --------------------
 Charge = -1 Multiplicity = 1

 SCF Done:  E(RB3LYP) =  -1713.54617030     A.U. after    1 cycles

  Exact polarizability: 290.829 -26.767 247.811 -19.617 -24.285 242.464
 Approx polarizability: 311.107 -31.932 275.864 -18.012 -25.897 284.334

                      1                      2                      3
                      A                      A                      A
 Frequencies --      6.3676                20.6860                31.8147
 Red. masses --      3.7614                 4.7706                 5.3360
 Frc consts  --      0.0001                 0.0012                 0.0032
 IR Inten    --      0.3500                 3.4917                 5.3849

                      4                      5                      6
                      A                      A                      A
 Frequencies --     41.8584                57.1204                81.1728
 Red. masses --      5.3299                 4.2777                 4.8225
 Frc consts  --      0.0055                 0.0082                 0.0187
 IR Inten    --      1.7335                 3.5271                 6.5351

                      7                      8                      9
                      A                      A                      A
 Frequencies --     89.3441               100.4698               126.5674
 Red. masses --      4.0258                 3.1135                 8.1744
 Frc consts  --      0.0189                 0.0185                 0.0772
 IR Inten    --      0.8708                 5.8633                 1.6423

                     10                     11                     12
                      A                      A                      A
 Frequencies --    146.7211               178.0851               195.0649
 Red. masses --      5.3087                 4.5874                 1.4200
 Frc consts  --      0.0673                 0.0857                 0.0318
 IR Inten    --      3.0871                10.0172                 1.3710

                     13                     14                     15
                      A                      A                      A
 Frequencies --    213.6554               218.1445               238.0751
 Red. masses --      3.8309                 1.5022                 2.2137
 Frc consts  --      0.1030                 0.0421                 0.0739
 IR Inten    --      4.9749                 2.2560                20.0826

                     16                     17                     18
                      A                      A                      A
 Frequencies --    249.6565               277.9942               285.9807
 Red. masses --      2.7111                 3.7662                 3.2230
 Frc consts  --      0.0996                 0.1715                 0.1553
 IR Inten    --     30.3278                17.1795                 3.7737

                     19                     20                     21
                      A                      A                      A
 Frequencies --    311.2124               325.5355               344.7072
 Red. masses --      3.4362                 2.7519                 3.2103
 Frc consts  --      0.1961                 0.1718                 0.2247
 IR Inten    --     16.0559                 0.7325                 4.0821

                     22                     23                     24
                      A                      A                      A
 Frequencies --    367.4718               374.8975               403.5782
 Red. masses --      2.8965                 2.5370                 4.8417
 Frc consts  --      0.2304                 0.2101                 0.4646
 IR Inten    --      5.2448                76.5463                51.0639

                     25                     26                     27
                      A                      A                      A
 Frequencies --    417.7566               443.3798               457.5161
 Red. masses --      2.9750                 4.8891                 4.4930
 Frc consts  --      0.3059                 0.5663                 0.5541
 IR Inten    --      0.0173                23.8857                54.8470

                     28                     29                     30
                      A                      A                      A
 Frequencies --    470.0441               485.3941               497.7100
 Red. masses --      5.1688                 2.5383                 1.9494
 Frc consts  --      0.6728                 0.3524                 0.2845
 IR Inten    --     56.1231                61.2956               105.9949

                     31                     32                     33
                      A                      A                      A
 Frequencies --    506.5418               525.7857               560.1792
 Red. masses --      4.6020                 3.8645                 4.0915
 Frc consts  --      0.6957                 0.6294                 0.7565
 IR Inten    --     29.2227                88.0922               214.9680

                     34                     35                     36
                      A                      A                      A
 Frequencies --    565.3983               613.9107               634.3217
 Red. masses --      6.9536                 4.1055                 3.9116
 Frc consts  --      1.3097                 0.9116                 0.9273
 IR Inten    --     50.3810                86.2480                36.9290

                     37                     38                     39
                      A                      A                      A
 Frequencies --    634.7298               655.4710               710.9049
 Red. masses --      6.1919                 5.3391                 3.2451
 Frc consts  --      1.4698                 1.3515                 0.9663
 IR Inten    --      1.9598               138.2091                37.0458

                     40                     41                     42
                      A                      A                      A
 Frequencies --    721.2737               773.7620               777.7693
 Red. masses --      1.8787                 1.9608                 1.3576
 Frc consts  --      0.5758                 0.6917                 0.4839
 IR Inten    --     38.2055                37.0412                 8.8267

                     43                     44                     45
                      A                      A                      A
 Frequencies --    805.1106               818.8436               842.2003
 Red. masses --      3.0576                 4.5133                 3.5190
 Frc consts  --      1.1677                 1.7830                 1.4706
 IR Inten    --    247.1365                27.8541                22.8890

                     46                     47                     48
                      A                      A                      A
 Frequencies --    865.3758               871.5759               919.2155
 Red. masses --      1.2503                 4.0369                 2.5169
 Frc consts  --      0.5517                 1.8068                 1.2530
 IR Inten    --      0.5096               253.5038                16.9895

                     49                     50                     51
                      A                      A                      A
 Frequencies --    929.5753               931.4247               941.5700
 Red. masses --      1.6262                 2.2176                 2.9392
 Frc consts  --      0.8279                 1.1335                 1.5353
 IR Inten    --     19.6368                79.8037               162.6738

                     52                     53                     54
                      A                      A                      A
 Frequencies --    975.4762               987.9061              1002.7657
 Red. masses --      1.3602                 2.0030                 1.2513
 Frc consts  --      0.7626                 1.1518                 0.7413
 IR Inten    --      0.0813                 5.7360                 1.1131

                     55                     56                     57
                      A                      A                      A
 Frequencies --   1016.2167              1024.3285              1053.1330
 Red. masses --      6.2357                 3.8759                 2.7309
 Frc consts  --      3.7941                 2.3961                 1.7845
 IR Inten    --      0.5931               580.2169                 2.1836

                     58                     59                     60
                      A                      A                      A
 Frequencies --   1055.7715              1066.2842              1077.6786
 Red. masses --      2.6137                 1.6131                 2.8854
 Frc consts  --      1.7165                 1.0806                 1.9744
 IR Inten    --     18.4753                22.0534               173.7925

                     61                     62                     63
                      A                      A                      A
 Frequencies --   1081.3238              1105.2908              1127.2815
 Red. masses --      2.4755                 3.1229                 1.7170
 Frc consts  --      1.7054                 2.2478                 1.2855
 IR Inten    --    108.4322               183.0028                16.6034

                     64                     65                     66
                      A                      A                      A
 Frequencies --   1132.3020              1136.3963              1170.1431
 Red. masses --      1.2235                 3.6670                 1.9911
 Frc consts  --      0.9242                 2.7901                 1.6063
 IR Inten    --      4.5183               299.3949                66.6230

                     67                     68                     69
                      A                      A                      A
 Frequencies --   1182.0474              1184.1387              1187.4387
 Red. masses --      1.4946                 1.4014                 1.0976
 Frc consts  --      1.2304                 1.1578                 0.9118
 IR Inten    --      7.4955                 7.1357                 0.0773

                     70                     71                     72
                      A                      A                      A
 Frequencies --   1201.9667              1216.1073              1224.5962
 Red. masses --      1.1357                 3.3673                 1.8928
 Frc consts  --      0.9667                 2.9341                 1.6724
 IR Inten    --      0.9113                18.4315                53.7617

                     73                     74                     75
                      A                      A                      A
 Frequencies --   1234.3310              1253.3010              1260.4021
 Red. masses --      2.3650                 4.7167                 2.1053
 Frc consts  --      2.1230                 4.3652                 1.9705
 IR Inten    --     33.5356               321.2483               129.2698

                     76                     77                     78
                      A                      A                      A
 Frequencies --   1275.8268              1301.9869              1340.1282
 Red. masses --      1.8923                 1.5280                 1.4278
 Frc consts  --      1.8148                 1.5261                 1.5109
 IR Inten    --     13.5406                53.6925                 9.3558

                     79                     80                     81
                      A                      A                      A
 Frequencies --   1360.5707              1362.4899              1392.9857
 Red. masses --      3.6014                 1.2491                 1.4353
 Frc consts  --      3.9279                 1.3662                 1.6409
 IR Inten    --      2.6592                 3.2580                24.7537

                     82                     83                     84
                      A                      A                      A
 Frequencies --   1417.6528              1452.0158              1464.0454
 Red. masses --      1.2585                 1.1392                 1.1145
 Frc consts  --      1.4902                 1.4151                 1.4075
 IR Inten    --     49.5189                 0.7344                 9.9114

                     85                     86                     87
                      A                      A                      A
 Frequencies --   1472.9189              1495.2610              1498.4502
 Red. masses --      1.1467                 1.1811                 1.8841
 Frc consts  --      1.4658                 1.5559                 2.4925
 IR Inten    --      3.2106                 2.0128                 4.9908

                     88                     89                     90
                      A                      A                      A
 Frequencies --   1504.1011              1517.1122              1519.5689
 Red. masses --      1.0483                 1.0541                 1.0516
 Frc consts  --      1.3973                 1.4295                 1.4307
 IR Inten    --     17.2776                 6.9056                17.7492

                     91                     92                     93
                      A                      A                      A
 Frequencies --   1521.5912              1532.9037              1542.3842
 Red. masses --      1.0974                 1.0464                 2.2602
 Frc consts  --      1.4970                 1.4487                 3.1679
 IR Inten    --      1.1232                19.1437                22.0062

                     94                     95                     96
                      A                      A                      A
 Frequencies --   1641.1658              1661.7662              3043.9390
 Red. masses --      5.4859                 5.7400                 1.0489
 Frc consts  --      8.7056                 9.3390                 5.7260
 IR Inten    --      1.4388                15.0008                73.9905

                     97                     98                     99
                      A                      A                      A
 Frequencies --   3048.9374              3051.5133              3061.9882
 Red. masses --      1.0470                 1.0665                 1.0627
 Frc consts  --      5.7347                 5.8514                 5.8704
 IR Inten    --     98.4839                12.0442                92.1177

                    100                    101                    102
                      A                      A                      A
 Frequencies --   3107.5318              3123.5735              3130.8971
 Red. masses --      1.0979                 1.0572                 1.0968
 Frc consts  --      6.2465                 6.0773                 6.3346
 IR Inten    --     16.3985                16.7802                37.4568

                    103                    104                    105
                      A                      A                      A
 Frequencies --   3137.4929              3138.5956              3188.4050
 Red. masses --      1.0902                 1.0912                 1.0898
 Frc consts  --      6.3230                 6.3331                 6.5274
 IR Inten    --     53.3146                 6.2542                32.6967

                    106                    107                    108
                      A                      A                      A
 Frequencies --   3188.7639              3190.8052              3196.3744
 Red. masses --      1.0869                 1.0870                 1.1105
 Frc consts  --      6.5114                 6.5203                 6.6845
 IR Inten    --     19.6877                13.0282                 0.7222

                    109                    110                    111
                      A                      A                      A
 Frequencies --   3196.5288              3201.4588              3202.4576
 Red. masses --      1.1016                 1.1011                 1.0896
 Frc consts  --      6.6318                 6.6490                 6.5837
 IR Inten    --      7.3375                 9.1790                12.6550

                    112                    113                    114
                      A                      A                      A
 Frequencies --   3209.7358              3222.4441              3494.1259
 Red. masses --      1.0938                 1.0977                 1.0763
 Frc consts  --      6.6396                 6.7158                 7.7418
 IR Inten    --     80.8039                36.5146               108.7194

 - Thermochemistry -
 -------------------
 Temperature   298.150 Kelvin.  Pressure   1.00000 Atm.
 Atom     1 has atomic number 16 and mass  31.97207

 Molecular mass:   331.07863 amu.
 Principal axes and moments of inertia in atomic units:
                           1         2         3
     Eigenvalues --  4963.45941********************
           X            0.99933   0.03643  -0.00405
           Y           -0.03654   0.99883  -0.03172
           Z            0.00289   0.03185   0.99949
 This molecule is an asymmetric top.
 Rotational symmetry number  1.
 Warning -- assumption of classical behavior for rotation
           may cause significant error
 Rotational temperatures (Kelvin)      0.01745     0.00753     0.00585
 Rotational constants (GHZ):           0.36361     0.15698     0.12198
 Zero-point vibrational energy     833976.9 (Joules/Mol)
                                  199.32525 (Kcal/Mol)
 Warning -- explicit consideration of  35 degrees of freedom as
           vibrations may cause significant error
 Vibrational temperatures:      9.16    29.76    45.77    60.22    82.18
          (Kelvin)            116.79   128.55   144.55   182.10   211.10
                              256.22   280.65   307.40   313.86   342.54
                              359.20   399.97   411.46   447.77   468.37
                              495.96   528.71   539.39   580.66   601.06
                              637.92   658.26   676.29   698.37   716.09
                              728.80   756.49   805.97   813.48   883.28
                              912.65   913.23   943.08  1022.83  1037.75
                             1113.27  1119.04  1158.37  1178.13  1211.74
                             1245.08  1254.00  1322.55  1337.45  1340.11
                             1354.71  1403.49  1421.38  1442.76  1462.11
                             1473.78  1515.22  1519.02  1534.15  1550.54
                             1555.78  1590.27  1621.91  1629.13  1635.02
                             1683.57  1700.70  1703.71  1708.46  1729.36
                             1749.71  1761.92  1775.93  1803.22  1813.44
                             1835.63  1873.27  1928.15  1957.56  1960.32
                             2004.20  2039.69  2089.13  2106.43  2119.20
                             2151.35  2155.94  2164.07  2182.79  2186.32
                             2189.23  2205.51  2219.15  2361.27  2390.91
                             4379.55  4386.74  4390.45  4405.52  4471.05
                             4494.13  4504.66  4514.15  4515.74  4587.40
                             4587.92  4590.86  4598.87  4599.09  4606.19
                             4607.62  4618.09  4636.38  5027.27

 Zero-point correction=                           0.317645 (Hartree/Particle)
 Thermal correction to Energy=                    0.339205
 Thermal correction to Enthalpy=                  0.340150
 Thermal correction to Gibbs Free Energy=         0.263836
 Sum of electronic and zero-point Energies=          -1713.228525
 Sum of electronic and thermal Energies=             -1713.206965
 Sum of electronic and thermal Enthalpies=           -1713.206021
 Sum of electronic and thermal Free Energies=        -1713.282334

                     E (Thermal)             CV                S
                      KCal/Mol        Cal/Mol-Kelvin    Cal/Mol-Kelvin
 Total                  212.855             81.768            160.615
 Electronic               0.000              0.000              0.000
 Translational            0.889              2.981             43.287
 Rotational               0.889              2.981             35.089
 Vibrational            211.077             75.806             82.240
 Vibration     1          0.593              1.987              8.908
 Vibration     2          0.593              1.986              6.567
 Vibration     3          0.594              1.983              5.713
 Vibration     4          0.594              1.980              5.169
 Vibration     5          0.596              1.975              4.554
 Vibration     6          0.600              1.962              3.862
 Vibration     7          0.602              1.957              3.674
 Vibration     8          0.604              1.949              3.445
 Vibration     9          0.611              1.927              2.998
 Vibration    10          0.617              1.906              2.714
 Vibration    11          0.629              1.869              2.348
 Vibration    12          0.636              1.847              2.179
 Vibration    13          0.644              1.820              2.012
 Vibration    14          0.646              1.813              1.974
 Vibration    15          0.656              1.782              1.817
 Vibration    16          0.662              1.763              1.733
 Vibration    17          0.679              1.714              1.546
 Vibration    18          0.684              1.700              1.498
 Vibration    19          0.700              1.652              1.356
 Vibration    20          0.710              1.624              1.282
 Vibration    21          0.723              1.586              1.190
 Vibration    22          0.740              1.539              1.090
 Vibration    23          0.746              1.524              1.060
 Vibration    24          0.769              1.462              0.950
 Vibration    25          0.781              1.432              0.900
 Vibration    26          0.803              1.375              0.816
 Vibration    27          0.816              1.344              0.773
 Vibration    28          0.827              1.317              0.737
 Vibration    29          0.841              1.282              0.696
 Vibration    30          0.853              1.255              0.664
 Vibration    31          0.862              1.236              0.642
 Vibration    32          0.881              1.193              0.597
 Vibration    33          0.916              1.117              0.523
 Vibration    34          0.921              1.106              0.513
 Vibration    35          0.973              1.002              0.426

 Optimization completed on the basis of negligible forces.
    -- Stationary point found.
 Normal termination of Gaussian 16 at Thu Sep 24 03:12:25 2020.

 ----------------------------------------------------------------------
 #p b3lyp/6-31G(d) scrf=(iefpcm,read,solvent=water) geom=allcheck guess
 =read
 ----------------------------------------------------------------------

 Structure from the checkpoint file:  "SM40_38w.a.2.pdb.xyz.mst.a.w.chk"
 --------------------
 SM40_38w.a.2.pdb.xyz
 --------------------
 Charge = -1 Multiplicity = 1

 SCF Done:  E(RB3LYP) =  -1713.54618227     A.U. after    6 cycles
 Normal termination of Gaussian 16 at Thu Sep 24 03:13:21 2020.

 -----------------------------
 #p B3LYP/6-31G* geom=allcheck
 -----------------------------

 Structure from the checkpoint file:  "SM40_38w.a.2.pdb.xyz.mst.a.w.chk"
 --------------------
 SM40_38w.a.2.pdb.xyz
 --------------------
 Charge = -1 Multiplicity = 1

 SCF Done:  E(RB3LYP) =  -1713.44875156     A.U. after   15 cycles
 Normal termination of Gaussian 16 at Thu Sep 24 03:14:40 2020.
 Gaussian 16:  ES64L-G16RevB.01 20-Dec-2017

 ----------------------------------------------------------------------
 #p mp2/aug-cc-pVDZ scf=(MaxCycle=2000,NoVarAcc,NoIncFock) maxdisk=120G
 B geom=allcheck
 ----------------------------------------------------------------------

 Structure from the checkpoint file:  "SM40_38w.a.2.pdb.xyz.mst.a.w.chk"
 --------------------
 SM40_38w.a.2.pdb.xyz
 --------------------
 Charge = -1 Multiplicity = 1

                         Standard orientation:
 ---------------------------------------------------------------------
 Center     Atomic      Atomic             Coordinates (Angstroms)
 Number     Number       Type             X           Y           Z
 ---------------------------------------------------------------------
      1         16           0       -1.718023   -1.812072   -0.400562
      2          7           0       -1.315035   -0.336406   -1.038558
      3          6           0       -0.352267    0.673506   -0.396748
      4          6           0       -0.951791    1.123756    0.969235
      5         16           0       -1.543321    2.630167    0.122495
      6          6           0       -0.473149    2.027783   -1.054889
      7          8           0       -3.036376    2.578427   -0.102809
      8          8           0       -1.165824    3.923149    0.786685
      9          6           0        1.060962    0.049944   -0.385198
     10          6           0        2.153027    0.914287    0.267112
     11          6           0        3.515623    0.263024    0.194783
     12          6           0        4.350675    0.463928   -0.913615
     13          6           0        5.597128   -0.158955   -0.997837
     14          6           0        6.033174   -0.996980    0.030918
     15          6           0        5.213070   -1.204978    1.142065
     16          6           0        3.967544   -0.579355    1.219906
     17          8           0       -0.751333   -2.324441    0.586181
     18          8           0       -2.056063   -2.687326   -1.543341
     19          1           0       -1.120233   -0.459878   -2.033976
     20          1           0       -0.210783    1.342678    1.737369
     21          1           0       -1.756361    0.498568    1.356234
     22          1           0       -0.595750    2.198233   -2.121111
     23          1           0        1.341098   -0.140349   -1.428650
     24          1           0        1.015777   -0.922940    0.110466
     25          1           0        1.896656    1.094848    1.317036
     26          1           0        2.173750    1.888077   -0.229777
     27          1           0        4.020811    1.119025   -1.715308
     28          1           0        6.229202    0.014072   -1.863311
     29          1           0        7.003299   -1.479456   -0.030891
     30          1           0        5.544000   -1.850310    1.949853
     31          1           0        3.336647   -0.741434    2.089297
     32          7           0       -3.089175   -1.412824    0.510257
     33          6           0       -3.481869   -2.464872    1.462714
     34          1           0       -2.615396   -2.763135    2.049354
     35          1           0       -4.235170   -2.036906    2.126834
     36          1           0       -3.910482   -3.344399    0.964979
     37          6           0       -4.217675   -0.917483   -0.291437
     38          1           0       -4.669811   -1.705328   -0.906595
     39          1           0       -4.968293   -0.536712    0.403792
     40          1           0       -3.877946   -0.099683   -0.924210
 ---------------------------------------------------------------------

 SCF Done:  E(RHF) =  -1706.66536724     A.U. after   16 cycles
 E2 =    -0.3335979834D+01 EUMP2 =    -0.17100013470711D+04

 The electronic state is 1-A.
 Alpha  occ. eigenvalues --  -92.13119 -92.01777 -20.45417 -20.45330 -20.37620
 Alpha  occ. eigenvalues --  -20.37496 -15.50854 -15.48883 -11.18339 -11.18214
 Alpha  occ. eigenvalues --  -11.16738 -11.16413 -11.16388 -11.16099 -11.16075
 Alpha  occ. eigenvalues --  -11.15460 -11.15446 -11.13446 -11.12800 -11.11916
 Alpha  occ. eigenvalues --  -11.05433  -9.09646  -8.98933  -6.78202  -6.78147
 Alpha  occ. eigenvalues --   -6.78089  -6.67378  -6.67375  -6.67275  -1.35782
 Alpha  occ. eigenvalues --   -1.24801  -1.23023  -1.14927  -1.12943  -1.11577
 Alpha  occ. eigenvalues --   -1.07319  -0.99672  -0.96682  -0.93385  -0.89563
 Alpha  occ. eigenvalues --   -0.87872  -0.84371  -0.79440  -0.79104  -0.74611
 Alpha  occ. eigenvalues --   -0.72722  -0.70101  -0.67733  -0.61364  -0.61168
 Alpha  occ. eigenvalues --   -0.60260  -0.59449  -0.56590  -0.55556  -0.55495
 Alpha  occ. eigenvalues --   -0.53964  -0.53269  -0.51938  -0.51234  -0.50579
 Alpha  occ. eigenvalues --   -0.49903  -0.48194  -0.47902  -0.46935  -0.46495
 Alpha  occ. eigenvalues --   -0.46078  -0.45172  -0.43602  -0.42952  -0.41787
 Alpha  occ. eigenvalues --   -0.41572  -0.41315  -0.39704  -0.39324  -0.38785
 Alpha  occ. eigenvalues --   -0.38149  -0.37848  -0.36285  -0.34099  -0.32912
 Alpha  occ. eigenvalues --   -0.30738  -0.30432  -0.28804  -0.28252  -0.26255
 Alpha  occ. eigenvalues --   -0.25538  -0.24042  -0.15675
 Alpha virt. eigenvalues --    0.09110   0.10112   0.10577   0.11001   0.12046
 Alpha virt. eigenvalues --    0.12749   0.12856   0.12900   0.13593   0.14480
 Alpha virt. eigenvalues --    0.14883   0.15025   0.15375   0.15777   0.16603

 Mulliken charges:
               1
     1  S    3.438574
     2  N   -1.373083
     3  C    0.382320
     4  C    0.397459
     5  S    2.896790
     6  C    0.114859
     7  O   -1.373082
     8  O   -1.341392
     9  C   -0.226709
    10  C    1.002833
    11  C    1.150777
    12  C    0.457147
    13  C   -0.015901
    14  C    0.659773
    15  C   -0.036827
    16  C    0.641313
    17  O   -1.290892
    18  O   -1.240381
    19  H   -0.070116
    20  H   -0.336969
    21  H   -0.402125
    22  H   -0.459865
    23  H   -0.143004
    24  H   -0.195632
    25  H   -0.318838
    26  H   -0.211832
    27  H   -0.675392
    28  H   -0.473197
    29  H   -0.457057
    30  H   -0.474482
    31  H   -0.673351
    32  N   -1.203345
    33  C    0.814226
    34  H   -0.180354
    35  H   -0.169165
    36  H   -0.057126
    37  C    0.787790
    38  H   -0.030719
    39  H   -0.184589
    40  H   -0.128439
 Sum of Mulliken charges =  -1.00000

 Dipole moment (field-independent basis, Debye):
    X=              4.3474    Y=             -8.1747    Z=              0.7536  Tot=              9.2894
 Quadrupole moment (field-independent basis, Debye-Ang):
   XX=           -169.2944   YY=           -210.0953   ZZ=           -143.0351
   XY=             18.0786   XZ=             -6.5424   YZ=            -12.9523

 Normal termination of Gaussian 16 at Thu Sep 24 05:04:49 2020.
