 Gaussian 16, Revision B.01,

 ----------------------------------------------------------------------
 #p b3lyp/6-31G(d) opt freq NoSymm scf=(MaxCycle=2000,NoVarAcc,NoIncFoc
 k) scrf=(iefpcm,read,solvent=water)
 ----------------------------------------------------------------------

 -----------------
 SM40.n.14.pdb.xyz
 -----------------
 Symbolic Z-matrix:
 Charge =  0 Multiplicity = 1

 SCF Done:  E(RB3LYP) =  -1714.06951189     A.U. after   13 cycles
 SCF Done:  E(RB3LYP) =  -1714.06912311     A.U. after   10 cycles
 SCF Done:  E(RB3LYP) =  -1714.06959526     A.U. after   10 cycles
 SCF Done:  E(RB3LYP) =  -1714.06957624     A.U. after    9 cycles
 SCF Done:  E(RB3LYP) =  -1714.06954741     A.U. after    8 cycles
 SCF Done:  E(RB3LYP) =  -1714.06955288     A.U. after    8 cycles
 SCF Done:  E(RB3LYP) =  -1714.06955255     A.U. after    7 cycles
 SCF Done:  E(RB3LYP) =  -1714.06955287     A.U. after    7 cycles
 Optimization completed.
    -- Stationary point found.
 Normal termination of Gaussian 16 at Tue Sep 22 06:33:28 2020.

 --------------------------------------------------------------------
 #P Geom=AllCheck Guess=TCheck SCRF=Check GenChk RB3LYP/6-31G(d) Freq
 --------------------------------------------------------------------

 Structure from the checkpoint file:  "SM40.n.14.pdb.xyz.mst.n.w.chk"
 -----------------
 SM40.n.14.pdb.xyz
 -----------------
 Charge =  0 Multiplicity = 1

 SCF Done:  E(RB3LYP) =  -1714.06955287     A.U. after    1 cycles

  Exact polarizability: 280.234  21.014 226.355   6.881 -24.955 240.256
 Approx polarizability: 300.840  22.898 254.368   5.147 -29.415 284.011

                      1                      2                      3
                      A                      A                      A
 Frequencies --     16.9266                25.5780                37.9039
 Red. masses --      4.8760                 6.2623                 4.8817
 Frc consts  --      0.0008                 0.0024                 0.0041
 IR Inten    --      2.0007                 3.4599                 1.3762

                      4                      5                      6
                      A                      A                      A
 Frequencies --     41.0153                54.0422                63.9333
 Red. masses --      5.1639                 4.7769                 3.2213
 Frc consts  --      0.0051                 0.0082                 0.0078
 IR Inten    --      9.8515                 0.4622                 2.4494

                      7                      8                      9
                      A                      A                      A
 Frequencies --     87.5714               112.0416               138.1316
 Red. masses --      4.1030                 5.1024                 5.1269
 Frc consts  --      0.0185                 0.0377                 0.0576
 IR Inten    --      1.3240                 6.9572                 4.9031

                     10                     11                     12
                      A                      A                      A
 Frequencies --    139.4323               188.4033               201.3827
 Red. masses --      6.5105                 1.7056                 5.2164
 Frc consts  --      0.0746                 0.0357                 0.1246
 IR Inten    --      2.9618                 8.4290                 3.2883

                     13                     14                     15
                      A                      A                      A
 Frequencies --    208.8022               219.9884               236.2504
 Red. masses --      1.6164                 5.1163                 1.3193
 Frc consts  --      0.0415                 0.1459                 0.0434
 IR Inten    --      5.1018                 6.2910                 5.4583

                     16                     17                     18
                      A                      A                      A
 Frequencies --    267.8149               281.2169               296.6241
 Red. masses --      3.6671                 3.7436                 3.8672
 Frc consts  --      0.1550                 0.1744                 0.2005
 IR Inten    --      5.7766                 1.5040                10.3504

                     19                     20                     21
                      A                      A                      A
 Frequencies --    303.4142               334.0640               348.4083
 Red. masses --      3.7009                 3.2977                 2.3142
 Frc consts  --      0.2007                 0.2168                 0.1655
 IR Inten    --      6.3127                24.6969                 6.2900

                     22                     23                     24
                      A                      A                      A
 Frequencies --    356.0500               365.8269               410.5320
 Red. masses --      2.9469                 2.5374                 3.5943
 Frc consts  --      0.2201                 0.2001                 0.3569
 IR Inten    --      5.1372                10.7827                16.7953

                     25                     26                     27
                      A                      A                      A
 Frequencies --    420.1776               429.5530               446.6067
 Red. masses --      2.9839                 3.1355                 4.9655
 Frc consts  --      0.3104                 0.3409                 0.5835
 IR Inten    --      1.7180                 5.8974                55.5912

                     28                     29                     30
                      A                      A                      A
 Frequencies --    468.3635               491.0116               502.7984
 Red. masses --      5.8052                 3.5837                 4.1870
 Frc consts  --      0.7503                 0.5091                 0.6236
 IR Inten    --     66.5456                 5.5119                31.8001

                     31                     32                     33
                      A                      A                      A
 Frequencies --    518.6706               559.6303               575.4158
 Red. masses --      4.1612                 5.2416                 2.7186
 Frc consts  --      0.6596                 0.9672                 0.5303
 IR Inten    --      5.1191                39.8738                33.0406

                     34                     35                     36
                      A                      A                      A
 Frequencies --    618.3871               633.6572               635.5382
 Red. masses --      4.6244                 5.6745                 3.2654
 Frc consts  --      1.0419                 1.3424                 0.7771
 IR Inten    --     51.3189                25.7468               146.2170

                     37                     38                     39
                      A                      A                      A
 Frequencies --    691.1547               720.4970               738.1075
 Red. masses --      5.4353                 2.2034                 2.5662
 Frc consts  --      1.5298                 0.6739                 0.8237
 IR Inten    --    171.1035                25.2144                43.7879

                     40                     41                     42
                      A                      A                      A
 Frequencies --    762.6549               769.2394               781.0182
 Red. masses --      1.7394                 5.4657                 2.9738
 Frc consts  --      0.5961                 1.9055                 1.0688
 IR Inten    --     51.2163                79.2017                 2.5772

                     43                     44                     45
                      A                      A                      A
 Frequencies --    797.1774               820.5564               860.8806
 Red. masses --      2.9213                 1.8045                 2.5682
 Frc consts  --      1.0938                 0.7159                 1.1214
 IR Inten    --      3.0019                53.0443                91.1571

                     46                     47                     48
                      A                      A                      A
 Frequencies --    874.3880               892.0461               923.9456
 Red. masses --      1.2762                 2.2186                 2.1015
 Frc consts  --      0.5749                 1.0401                 1.0570
 IR Inten    --      5.7264                25.2622                96.3044

                     49                     50                     51
                      A                      A                      A
 Frequencies --    947.7448               949.3143               969.7485
 Red. masses --      1.8523                 2.8647                 1.8622
 Frc consts  --      0.9803                 1.5211                 1.0318
 IR Inten    --     81.5498               167.3919                 7.3769

                     52                     53                     54
                      A                      A                      A
 Frequencies --    984.8351              1001.4508              1007.9947
 Red. masses --      1.3502                 2.2179                 1.2543
 Frc consts  --      0.7715                 1.3106                 0.7509
 IR Inten    --      0.2553                21.9166                 0.5687

                     55                     56                     57
                      A                      A                      A
 Frequencies --   1016.3244              1028.4865              1056.4119
 Red. masses --      5.9091                 1.8944                 1.9468
 Frc consts  --      3.5962                 1.1806                 1.2801
 IR Inten    --      1.0302                15.9206                 8.1664

                     58                     59                     60
                      A                      A                      A
 Frequencies --   1062.0484              1072.8071              1076.7598
 Red. masses --      1.2461                 2.6616                 1.7313
 Frc consts  --      0.8281                 1.8048                 1.1826
 IR Inten    --      1.9825               286.5531                 3.4944

                     61                     62                     63
                      A                      A                      A
 Frequencies --   1087.2447              1105.7308              1108.1494
 Red. masses --      2.4226                 4.0236                 3.1452
 Frc consts  --      1.6873                 2.8985                 2.2756
 IR Inten    --     67.0243               108.2319               135.5190

                     64                     65                     66
                      A                      A                      A
 Frequencies --   1137.7716              1139.8496              1184.9486
 Red. masses --      2.3029                 1.2355                 1.0960
 Frc consts  --      1.7565                 0.9458                 0.9067
 IR Inten    --     44.1213                 6.2129                 0.0800

                     67                     68                     69
                      A                      A                      A
 Frequencies --   1187.3233              1191.5655              1206.3031
 Red. masses --      1.3770                 1.3190                 1.1477
 Frc consts  --      1.1437                 1.1034                 0.9840
 IR Inten    --      4.4487                 2.1904                 0.4434

                     70                     71                     72
                      A                      A                      A
 Frequencies --   1212.9873              1223.1220              1234.6526
 Red. masses --      1.5074                 3.2335                 2.4465
 Frc consts  --      1.3068                 2.8501                 2.1973
 IR Inten    --     53.7298                27.1179                 0.4418

                     73                     74                     75
                      A                      A                      A
 Frequencies --   1255.7597              1261.4926              1268.1921
 Red. masses --      1.8655                 5.3170                 6.0467
 Frc consts  --      1.7333                 4.9852                 5.7298
 IR Inten    --     14.4707               513.7026               346.9288

                     76                     77                     78
                      A                      A                      A
 Frequencies --   1283.7475              1290.6767              1307.7695
 Red. masses --      2.3392                 1.9123                 1.4081
 Frc consts  --      2.2713                 1.8769                 1.4189
 IR Inten    --     40.4195                23.1083                 6.0776

                     79                     80                     81
                      A                      A                      A
 Frequencies --   1353.8299              1365.7671              1397.1469
 Red. masses --      2.7807                 1.6869                 1.3971
 Frc consts  --      3.0028                 1.8539                 1.6068
 IR Inten    --      1.0238                 0.3616                 6.9433

                     82                     83                     84
                      A                      A                      A
 Frequencies --   1400.3315              1439.2983              1450.4749
 Red. masses --      1.3891                 1.2408                 1.1027
 Frc consts  --      1.6049                 1.5145                 1.3669
 IR Inten    --     14.7469                73.2080                26.2947

                     85                     86                     87
                      A                      A                      A
 Frequencies --   1461.0640              1463.6709              1491.6442
 Red. masses --      1.1055                 1.1345                 1.1393
 Frc consts  --      1.3904                 1.4320                 1.4935
 IR Inten    --      3.1335                 1.7368                 4.3602

                     88                     89                     90
                      A                      A                      A
 Frequencies --   1498.0639              1507.0790              1512.3024
 Red. masses --      2.1373                 1.0840                 1.0635
 Frc consts  --      2.8261                 1.4506                 1.4331
 IR Inten    --     10.3134                10.8654                 9.7675

                     91                     92                     93
                      A                      A                      A
 Frequencies --   1520.9338              1527.0725              1530.8788
 Red. masses --      1.1028                 1.0470                 1.0476
 Frc consts  --      1.5030                 1.4386                 1.4465
 IR Inten    --      8.6538                13.3513                23.9537

                     94                     95                     96
                      A                      A                      A
 Frequencies --   1540.0765              1543.9709              1641.8541
 Red. masses --      1.0488                 2.2336                 5.4482
 Frc consts  --      1.4657                 3.1372                 8.6530
 IR Inten    --     13.5675                15.6216                 1.5404

                     97                     98                     99
                      A                      A                      A
 Frequencies --   1662.2729              3058.7636              3059.6682
 Red. masses --      5.6639                 1.0464                 1.0631
 Frc consts  --      9.2208                 5.7684                 5.8636
 IR Inten    --      7.9887                69.0201                15.7003

                    100                    101                    102
                      A                      A                      A
 Frequencies --   3065.9008              3068.6234              3101.3945
 Red. masses --      1.0639                 1.0430                 1.1027
 Frc consts  --      5.8922                 5.7865                 6.2493
 IR Inten    --     47.9065                68.4057                29.4112

                    103                    104                    105
                      A                      A                      A
 Frequencies --   3118.3549              3144.6710              3147.6090
 Red. masses --      1.0991                 1.0585                 1.0922
 Frc consts  --      6.2970                 6.1672                 6.3758
 IR Inten    --     31.4201                 4.3601                34.9681

                    106                    107                    108
                      A                      A                      A
 Frequencies --   3152.9842              3154.9912              3182.4330
 Red. masses --      1.0949                 1.0580                 1.0886
 Frc consts  --      6.4133                 6.2049                 6.4959
 IR Inten    --     18.5019                 0.4824                21.3569

                    109                    110                    111
                      A                      A                      A
 Frequencies --   3192.4885              3195.2375              3204.0859
 Red. masses --      1.0865                 1.1037                 1.0893
 Frc consts  --      6.5243                 6.6392                 6.5889
 IR Inten    --     12.9807                13.6877                12.4417

                    112                    113                    114
                      A                      A                      A
 Frequencies --   3209.3483              3211.3813              3224.0742
 Red. masses --      1.1016                 1.0935                 1.0976
 Frc consts  --      6.6849                 6.6445                 6.7221
 IR Inten    --      6.3327                68.5606                35.5099

                    115                    116                    117
                      A                      A                      A
 Frequencies --   3227.8157              3230.0410              3493.8427
 Red. masses --      1.1108                 1.1118                 1.0755
 Frc consts  --      6.8190                 6.8344                 7.7349
 IR Inten    --      6.4528                 0.6961               122.0243

 - Thermochemistry -
 -------------------
 Temperature   298.150 Kelvin.  Pressure   1.00000 Atm.
 Atom     1 has atomic number  8 and mass  15.99491

 Molecular mass:   332.08645 amu.
 Principal axes and moments of inertia in atomic units:
                           1         2         3
     Eigenvalues --  5377.115369107.72434**********
           X            0.99983  -0.01374  -0.01230
           Y            0.01346   0.99965  -0.02258
           Z            0.01260   0.02241   0.99967
 This molecule is an asymmetric top.
 Rotational symmetry number  1.
 Warning -- assumption of classical behavior for rotation
           may cause significant error
 Rotational temperatures (Kelvin)      0.01611     0.00951     0.00711
 Rotational constants (GHZ):           0.33563     0.19816     0.14816
 Zero-point vibrational energy     874945.6 (Joules/Mol)
                                  209.11702 (Kcal/Mol)
 Warning -- explicit consideration of  34 degrees of freedom as
           vibrations may cause significant error
 Vibrational temperatures:     24.35    36.80    54.54    59.01    77.75
          (Kelvin)             91.99   126.00   161.20   198.74   200.61
                              271.07   289.74   300.42   316.51   339.91
                              385.33   404.61   426.78   436.55   480.64
                              501.28   512.28   526.34   590.66   604.54
                              618.03   642.57   673.87   706.46   723.41
                              746.25   805.18   827.89   889.72   911.69
                              914.40   994.42  1036.63  1061.97  1097.29
                             1106.76  1123.71  1146.96  1180.60  1238.62
                             1258.05  1283.46  1329.35  1363.59  1365.85
                             1395.25  1416.96  1440.86  1450.28  1462.26
                             1479.76  1519.94  1528.05  1543.53  1549.22
                             1564.30  1590.90  1594.38  1637.00  1639.99
                             1704.88  1708.29  1714.40  1735.60  1745.22
                             1759.80  1776.39  1806.76  1815.01  1824.65
                             1847.03  1857.00  1881.59  1947.86  1965.03
                             2010.18  2014.76  2070.83  2086.91  2102.15
                             2105.90  2146.14  2155.38  2168.35  2175.87
                             2188.28  2197.12  2202.59  2215.83  2221.43
                             2362.26  2391.64  4400.88  4402.18  4411.15
                             4415.06  4462.22  4486.62  4524.48  4528.71
                             4536.44  4539.33  4578.81  4593.28  4597.23
                             4609.96  4617.54  4620.46  4638.72  4644.11
                             4647.31  5026.86

 Zero-point correction=                           0.333249 (Hartree/Particle)
 Thermal correction to Energy=                    0.354560
 Thermal correction to Enthalpy=                  0.355505
 Thermal correction to Gibbs Free Energy=         0.280832
 Sum of electronic and zero-point Energies=          -1713.736304
 Sum of electronic and thermal Energies=             -1713.714993
 Sum of electronic and thermal Enthalpies=           -1713.714048
 Sum of electronic and thermal Free Energies=        -1713.788721

                     E (Thermal)             CV                S
                      KCal/Mol        Cal/Mol-Kelvin    Cal/Mol-Kelvin
 Total                  222.490             81.008            157.162
 Electronic               0.000              0.000              0.000
 Translational            0.889              2.981             43.296
 Rotational               0.889              2.981             34.744
 Vibrational            220.713             75.046             79.122
 Vibration     1          0.593              1.986              6.966
 Vibration     2          0.593              1.985              6.146
 Vibration     3          0.594              1.982              5.366
 Vibration     4          0.594              1.981              5.209
 Vibration     5          0.596              1.976              4.664
 Vibration     6          0.597              1.972              4.332
 Vibration     7          0.601              1.958              3.714
 Vibration     8          0.607              1.939              3.233
 Vibration     9          0.614              1.915              2.830
 Vibration    10          0.615              1.914              2.812
 Vibration    11          0.633              1.856              2.243
 Vibration    12          0.638              1.838              2.120
 Vibration    13          0.642              1.827              2.054
 Vibration    14          0.647              1.811              1.959
 Vibration    15          0.655              1.785              1.831
 Vibration    16          0.673              1.732              1.610
 Vibration    17          0.681              1.708              1.526
 Vibration    18          0.690              1.680              1.436
 Vibration    19          0.695              1.667              1.398
 Vibration    20          0.716              1.607              1.240
 Vibration    21          0.726              1.579              1.173
 Vibration    22          0.732              1.563              1.139
 Vibration    23          0.739              1.543              1.097
 Vibration    24          0.775              1.447              0.925
 Vibration    25          0.783              1.426              0.891
 Vibration    26          0.791              1.406              0.860
 Vibration    27          0.806              1.368              0.806
 Vibration    28          0.826              1.320              0.742
 Vibration    29          0.847              1.270              0.681
 Vibration    30          0.858              1.244              0.651
 Vibration    31          0.874              1.209              0.613
 Vibration    32          0.915              1.119              0.525
 Vibration    33          0.932              1.084              0.494
 Vibration    34          0.978              0.993              0.419

                           ! Non-Optimized Parameters !
 Normal termination of Gaussian 16 at Tue Sep 22 06:54:02 2020.

 ----------------------------------------------------------------------
 #p b3lyp/6-31G(d) scrf=(iefpcm,read,solvent=water) geom=allcheck guess
 =read
 ----------------------------------------------------------------------

 Structure from the checkpoint file:  "SM40.n.14.pdb.xyz.mst.n.w.chk"
 -----------------
 SM40.n.14.pdb.xyz
 -----------------
 Charge =  0 Multiplicity = 1

 SCF Done:  E(RB3LYP) =  -1714.06955554     A.U. after    5 cycles
 Normal termination of Gaussian 16 at Tue Sep 22 06:54:48 2020.

 -----------------------------
 #p B3LYP/6-31G* geom=allcheck
 -----------------------------

 Structure from the checkpoint file:  "SM40.n.14.pdb.xyz.mst.n.w.chk"
 -----------------
 SM40.n.14.pdb.xyz
 -----------------
 Charge =  0 Multiplicity = 1

 SCF Done:  E(RB3LYP) =  -1714.04237875     A.U. after   15 cycles
 Normal termination of Gaussian 16 at Tue Sep 22 06:55:59 2020.
 Gaussian 16:  ES64L-G16RevB.01 20-Dec-2017

 ----------------------------------------------------------------------
 #p mp2/aug-cc-pVDZ scf=(MaxCycle=2000,NoVarAcc,NoIncFock) maxdisk=120G
 B geom=allcheck
 ----------------------------------------------------------------------

 Structure from the checkpoint file:  "SM40.n.14.pdb.xyz.mst.n.w.chk"
 -----------------
 SM40.n.14.pdb.xyz
 -----------------
 Charge =  0 Multiplicity = 1

                         Standard orientation:
 ---------------------------------------------------------------------
 Center     Atomic      Atomic             Coordinates (Angstroms)
 Number     Number       Type             X           Y           Z
 ---------------------------------------------------------------------
      1          8           0       -2.893043    0.522134   -1.230819
      2         16           0       -2.447499   -0.647896   -0.453985
      3          7           0       -1.074347   -0.150386    0.371521
      4          6           0       -0.058020    0.665744   -0.325596
      5          6           0        1.026807    1.077164    0.731602
      6         16           0        0.847674    2.822545    0.241346
      7          6           0       -0.587362    2.110073   -0.623282
      8          8           0        0.504050    3.735468    1.348852
      9          8           0        1.910957    3.234993   -0.699778
     10          6           0        0.537403    0.030119   -1.598551
     11          6           0        1.087304   -1.404856   -1.475197
     12          6           0        2.273774   -1.586377   -0.552652
     13          6           0        2.145591   -2.309049    0.640162
     14          6           0        3.232638   -2.475980    1.501548
     15          6           0        4.471923   -1.922485    1.178382
     16          6           0        4.616900   -1.208350   -0.014270
     17          6           0        3.528653   -1.046151   -0.871667
     18          7           0       -3.410411   -0.997660    0.868646
     19          6           0       -3.864758    0.174962    1.631104
     20          6           0       -4.472070   -1.987183    0.617498
     21          8           0       -2.267083   -1.913614   -1.181369
     22          1           0       -0.669709   -0.945057    0.871644
     23          1           0        2.025182    0.673938    0.583592
     24          1           0        0.688777    0.946451    1.758853
     25          1           0       -0.654733    2.397874   -1.670290
     26          1           0       -1.503637    2.352162   -0.090442
     27          1           0        1.320169    0.700479   -1.971469
     28          1           0       -0.247999    0.026350   -2.361446
     29          1           0        1.368150   -1.715032   -2.488229
     30          1           0        0.278180   -2.071626   -1.164670
     31          1           0        1.184220   -2.746965    0.892537
     32          1           0        3.110356   -3.039250    2.421330
     33          1           0        5.318890   -2.049863    1.844572
     34          1           0        5.579362   -0.782748   -0.279034
     35          1           0        3.654832   -0.494281   -1.799905
     36          1           0       -3.016734    0.825724    1.840810
     37          1           0       -4.269427   -0.190334    2.576261
     38          1           0       -4.642323    0.737580    1.102307
     39          1           0       -4.054328   -2.844758    0.095321
     40          1           0       -5.304216   -1.569671    0.038388
     41          1           0       -4.846266   -2.306670    1.591345
 ---------------------------------------------------------------------

 SCF Done:  E(RHF) =  -1707.25402928     A.U. after   16 cycles
 E2 =    -0.3323938512D+01 EUMP2 =    -0.17105779677951D+04

 The electronic state is 1-A.
 Alpha  occ. eigenvalues --  -92.25920 -92.19433 -20.57722 -20.57624 -20.55635
 Alpha  occ. eigenvalues --  -20.55467 -15.63660 -15.63186 -11.34008 -11.29206
 Alpha  occ. eigenvalues --  -11.29082 -11.28936 -11.28815 -11.26347 -11.25877
 Alpha  occ. eigenvalues --  -11.25802 -11.25742 -11.25517 -11.25364 -11.25219
 Alpha  occ. eigenvalues --  -11.25118  -9.22433  -9.16727  -6.90975  -6.90938
 Alpha  occ. eigenvalues --   -6.90898  -6.85218  -6.85119  -6.85052  -1.48487
 Alpha  occ. eigenvalues --   -1.43704  -1.35442  -1.32463  -1.28260  -1.26314
 Alpha  occ. eigenvalues --   -1.17302  -1.14724  -1.08260  -1.03068  -1.01696
 Alpha  occ. eigenvalues --   -0.99591  -0.98206  -0.97160  -0.91862  -0.86204
 Alpha  occ. eigenvalues --   -0.84314  -0.82551  -0.80397  -0.78307  -0.75153
 Alpha  occ. eigenvalues --   -0.71919  -0.71736  -0.70326  -0.68918  -0.68010
 Alpha  occ. eigenvalues --   -0.66433  -0.65855  -0.64879  -0.64614  -0.63591
 Alpha  occ. eigenvalues --   -0.62899  -0.62040  -0.61857  -0.60081  -0.59683
 Alpha  occ. eigenvalues --   -0.59328  -0.58733  -0.58172  -0.56705  -0.55608
 Alpha  occ. eigenvalues --   -0.54997  -0.53292  -0.52782  -0.52431  -0.51436
 Alpha  occ. eigenvalues --   -0.51096  -0.49911  -0.49465  -0.48980  -0.48507
 Alpha  occ. eigenvalues --   -0.48099  -0.47328  -0.46010  -0.43700  -0.42439
 Alpha  occ. eigenvalues --   -0.42193  -0.35258  -0.34086
 Alpha virt. eigenvalues --    0.02233   0.03111   0.03724   0.03898   0.04358
 Alpha virt. eigenvalues --    0.04687   0.05521   0.05742   0.05772   0.06012
 Alpha virt. eigenvalues --    0.07036   0.07229   0.07528   0.07972   0.08160

 Mulliken charges:
               1
     1  O   -1.244879
     2  S    3.400088
     3  N   -1.213542
     4  C    0.152402
     5  C    0.555352
     6  S    2.916164
     7  C    0.538414
     8  O   -1.258588
     9  O   -1.285427
    10  C    0.222578
    11  C    0.423788
    12  C    0.735826
    13  C    0.798250
    14  C   -0.092408
    15  C    0.777957
    16  C    0.093249
    17  C    0.628316
    18  N   -1.098756
    19  C    0.773293
    20  C    0.824469
    21  O   -1.233303
    22  H   -0.146539
    23  H   -0.185285
    24  H   -0.368255
    25  H   -0.304085
    26  H   -0.176344
    27  H   -0.148474
    28  H   -0.117169
    29  H   -0.132899
    30  H   -0.282984
    31  H   -0.734577
    32  H   -0.483173
    33  H   -0.450104
    34  H   -0.488575
    35  H   -0.681058
    36  H   -0.163335
    37  H   -0.197868
    38  H   -0.024430
    39  H   -0.150378
    40  H   -0.030004
    41  H   -0.147706
 Sum of Mulliken charges =  -0.00000

 Dipole moment (field-independent basis, Debye):
    X=             -2.1663    Y=             -5.6683    Z=              2.7835  Tot=              6.6761
 Quadrupole moment (field-independent basis, Debye-Ang):
   XX=           -126.6472   YY=           -170.3728   ZZ=           -140.6513
   XY=             -7.8276   XZ=            -10.0516   YZ=            -11.5414

 Normal termination of Gaussian 16 at Tue Sep 22 07:58:46 2020.
