 Gaussian 16, Revision B.01,

 ----------------------------------------------------------------------
 #p b3lyp/6-31G(d) opt freq NoSymm scf=(MaxCycle=2000,NoVarAcc,NoIncFoc
 k) scrf=(iefpcm,read,solvent=water)
 ----------------------------------------------------------------------

 ----------------
 SM40.n.8.pdb.xyz
 ----------------
 Symbolic Z-matrix:
 Charge =  0 Multiplicity = 1

 SCF Done:  E(RB3LYP) =  -1714.06738707     A.U. after   13 cycles
 SCF Done:  E(RB3LYP) =  -1714.06744439     A.U. after   10 cycles
 SCF Done:  E(RB3LYP) =  -1714.06757558     A.U. after   10 cycles
 SCF Done:  E(RB3LYP) =  -1714.06744376     A.U. after   10 cycles
 SCF Done:  E(RB3LYP) =  -1714.06755059     A.U. after    9 cycles
 SCF Done:  E(RB3LYP) =  -1714.06754744     A.U. after    9 cycles
 SCF Done:  E(RB3LYP) =  -1714.06757388     A.U. after    9 cycles
 SCF Done:  E(RB3LYP) =  -1714.06757547     A.U. after    8 cycles
 SCF Done:  E(RB3LYP) =  -1714.06755172     A.U. after    9 cycles
 SCF Done:  E(RB3LYP) =  -1714.06756055     A.U. after    8 cycles
 SCF Done:  E(RB3LYP) =  -1714.06754741     A.U. after    9 cycles
 SCF Done:  E(RB3LYP) =  -1714.06754493     A.U. after    8 cycles
 SCF Done:  E(RB3LYP) =  -1714.06754069     A.U. after    7 cycles
 SCF Done:  E(RB3LYP) =  -1714.06754244     A.U. after    6 cycles
 SCF Done:  E(RB3LYP) =  -1714.06754212     A.U. after    7 cycles
 SCF Done:  E(RB3LYP) =  -1714.06754213     A.U. after    6 cycles
 Optimization completed.
    -- Stationary point found.
 Normal termination of Gaussian 16 at Tue Sep 22 06:50:02 2020.

 --------------------------------------------------------------------
 #P Geom=AllCheck Guess=TCheck SCRF=Check GenChk RB3LYP/6-31G(d) Freq
 --------------------------------------------------------------------

 Structure from the checkpoint file:  "SM40.n.8.pdb.xyz.mst.n.w.chk"
 ----------------
 SM40.n.8.pdb.xyz
 ----------------
 Charge =  0 Multiplicity = 1

 SCF Done:  E(RB3LYP) =  -1714.06754213     A.U. after    1 cycles

  Exact polarizability: 271.719 -34.530 235.239  17.178  22.091 239.867
 Approx polarizability: 300.350 -37.000 263.025  21.415  20.666 277.013

                      1                      2                      3
                      A                      A                      A
 Frequencies --     20.4412                27.5997                35.7291
 Red. masses --      5.5255                 4.8408                 7.4607
 Frc consts  --      0.0014                 0.0022                 0.0056
 IR Inten    --      5.6245                 1.0523                 5.4849

                      4                      5                      6
                      A                      A                      A
 Frequencies --     44.5355                54.8360                73.0179
 Red. masses --      5.6329                 3.6502                 2.9595
 Frc consts  --      0.0066                 0.0065                 0.0093
 IR Inten    --      0.5122                 0.8733                 4.3040

                      7                      8                      9
                      A                      A                      A
 Frequencies --     81.4347               108.9563               149.8052
 Red. masses --      3.8185                 5.9588                 7.4679
 Frc consts  --      0.0149                 0.0417                 0.0987
 IR Inten    --      3.3180                 0.2006                 0.4484

                     10                     11                     12
                      A                      A                      A
 Frequencies --    173.1125               176.9959               197.5621
 Red. masses --      5.6072                 2.8332                 1.7149
 Frc consts  --      0.0990                 0.0523                 0.0394
 IR Inten    --      5.8236                12.7887                 1.1262

                     13                     14                     15
                      A                      A                      A
 Frequencies --    215.4533               227.4495               243.4278
 Red. masses --      1.6905                 2.9338                 1.9290
 Frc consts  --      0.0462                 0.0894                 0.0673
 IR Inten    --     10.2617                 6.4251                 5.8017

                     16                     17                     18
                      A                      A                      A
 Frequencies --    259.3201               268.3121               300.2154
 Red. masses --      5.9501                 2.9215                 2.7471
 Frc consts  --      0.2357                 0.1239                 0.1459
 IR Inten    --      6.4065                 3.6150                 3.2463

                     19                     20                     21
                      A                      A                      A
 Frequencies --    312.1004               341.4205               356.8571
 Red. masses --      2.6656                 3.0575                 2.5133
 Frc consts  --      0.1530                 0.2100                 0.1886
 IR Inten    --      2.2040                 2.4223                 3.3142

                     22                     23                     24
                      A                      A                      A
 Frequencies --    362.9384               388.8375               401.2748
 Red. masses --      2.9915                 4.4700                 4.3645
 Frc consts  --      0.2322                 0.3982                 0.4141
 IR Inten    --      8.0855                19.8748                22.1140

                     25                     26                     27
                      A                      A                      A
 Frequencies --    423.1099               438.5172               443.9870
 Red. masses --      2.9841                 3.0828                 3.6749
 Frc consts  --      0.3148                 0.3493                 0.4268
 IR Inten    --      0.7562                38.9926                 4.5390

                     28                     29                     30
                      A                      A                      A
 Frequencies --    457.7065               484.3016               485.5751
 Red. masses --      2.1467                 3.4530                 2.6053
 Frc consts  --      0.2650                 0.4772                 0.3619
 IR Inten    --     77.1565                39.0347               148.8475

                     31                     32                     33
                      A                      A                      A
 Frequencies --    504.0126               538.3338               569.7078
 Red. masses --      4.6635                 4.7174                 4.0749
 Frc consts  --      0.6980                 0.8055                 0.7792
 IR Inten    --     30.9106                52.3290                16.1710

                     34                     35                     36
                      A                      A                      A
 Frequencies --    581.4126               601.3178               633.8553
 Red. masses --      4.2336                 6.1121                 6.3704
 Frc consts  --      0.8432                 1.3021                 1.5080
 IR Inten    --     82.5264                55.0561                 0.3447

                     37                     38                     39
                      A                      A                      A
 Frequencies --    667.1016               714.4419               724.9136
 Red. masses --      5.8225                 2.7673                 2.3461
 Frc consts  --      1.5267                 0.8322                 0.7264
 IR Inten    --    128.4961                 4.5402                34.0411

                     40                     41                     42
                      A                      A                      A
 Frequencies --    747.9531               756.8246               774.9355
 Red. masses --      2.1422                 4.4822                 2.2768
 Frc consts  --      0.7061                 1.5126                 0.8056
 IR Inten    --     55.7149                67.5352                21.7224

                     43                     44                     45
                      A                      A                      A
 Frequencies --    802.7134               818.8114               852.0533
 Red. masses --      3.4653                 1.6420                 2.9047
 Frc consts  --      1.3156                 0.6486                 1.2425
 IR Inten    --     10.4747                23.7027                90.4530

                     46                     47                     48
                      A                      A                      A
 Frequencies --    869.9571               892.8019               920.9993
 Red. masses --      1.2485                 2.5048                 1.5183
 Frc consts  --      0.5567                 1.1764                 0.7588
 IR Inten    --      0.2670                28.5214                49.6408

                     49                     50                     51
                      A                      A                      A
 Frequencies --    940.3447               950.1908               965.7881
 Red. masses --      3.1259                 2.0321                 2.5481
 Frc consts  --      1.6285                 1.0810                 1.4003
 IR Inten    --    189.2253                 3.0902                93.9059

                     52                     53                     54
                      A                      A                      A
 Frequencies --    983.1034              1000.1610              1005.7263
 Red. masses --      1.3557                 2.2641                 1.2733
 Frc consts  --      0.7720                 1.3344                 0.7588
 IR Inten    --      2.1116                12.6322                 1.6566

                     55                     56                     57
                      A                      A                      A
 Frequencies --   1015.9638              1041.6699              1045.8450
 Red. masses --      5.9650                 1.3170                 2.0876
 Frc consts  --      3.6276                 0.8420                 1.3453
 IR Inten    --      0.6597                23.4195                11.9761

                     58                     59                     60
                      A                      A                      A
 Frequencies --   1058.8157              1067.7049              1069.3112
 Red. masses --      2.1011                 1.6966                 2.2389
 Frc consts  --      1.3878                 1.1396                 1.5083
 IR Inten    --     32.7617                19.3296               112.3608

                     61                     62                     63
                      A                      A                      A
 Frequencies --   1081.3389              1100.2683              1117.2981
 Red. masses --      2.6170                 7.8699                 2.0311
 Frc consts  --      1.8029                 5.6133                 1.4939
 IR Inten    --    226.8450               250.6850                39.6839

                     64                     65                     66
                      A                      A                      A
 Frequencies --   1130.3472              1144.9664              1180.7684
 Red. masses --      1.2328                 2.6357                 1.3854
 Frc consts  --      0.9280                 2.0358                 1.1380
 IR Inten    --      1.7240                41.3353                 5.3076

                     67                     68                     69
                      A                      A                      A
 Frequencies --   1186.7682              1192.1868              1211.6750
 Red. masses --      1.0899                 1.3193                 1.1539
 Frc consts  --      0.9044                 1.1048                 0.9981
 IR Inten    --      0.3906                 0.8704                 2.4685

                     70                     71                     72
                      A                      A                      A
 Frequencies --   1215.3478              1228.3731              1230.2011
 Red. masses --      3.3730                 1.8444                 1.6935
 Frc consts  --      2.9354                 1.6397                 1.5101
 IR Inten    --     46.7486                 4.1567               175.5717

                     73                     74                     75
                      A                      A                      A
 Frequencies --   1235.4555              1260.6411              1270.3166
 Red. masses --      2.0629                 1.7270                 6.4673
 Frc consts  --      1.8552                 1.6170                 6.1489
 IR Inten    --     30.1455                30.4673               384.7971

                     76                     77                     78
                      A                      A                      A
 Frequencies --   1277.4515              1287.5612              1321.5623
 Red. masses --      2.3237                 3.3974                 1.6730
 Frc consts  --      2.2342                 3.3184                 1.7215
 IR Inten    --    105.7996               167.4924               110.9434

                     79                     80                     81
                      A                      A                      A
 Frequencies --   1349.2793              1363.9266              1390.5644
 Red. masses --      2.2572                 1.9448                 1.4394
 Frc consts  --      2.4211                 2.1316                 1.6399
 IR Inten    --      3.5954                 0.1944                 7.1044

                     82                     83                     84
                      A                      A                      A
 Frequencies --   1412.1364              1445.8269              1453.4362
 Red. masses --      1.4215                 1.1076                 1.1382
 Frc consts  --      1.6701                 1.3642                 1.4166
 IR Inten    --      0.1418                41.5155                 0.7738

                     85                     86                     87
                      A                      A                      A
 Frequencies --   1463.3040              1472.6400              1477.0585
 Red. masses --      1.1806                 1.1290                 1.1288
 Frc consts  --      1.4894                 1.4425                 1.4510
 IR Inten    --     57.2526                13.1305                 5.7299

                     88                     89                     90
                      A                      A                      A
 Frequencies --   1495.7318              1503.7601              1504.2902
 Red. masses --      1.5960                 1.3219                 1.0501
 Frc consts  --      2.1038                 1.7612                 1.4000
 IR Inten    --      2.5257                15.0119                13.4485

                     91                     92                     93
                      A                      A                      A
 Frequencies --   1515.7532              1518.3722              1520.7037
 Red. masses --      1.0473                 1.0710                 1.0803
 Frc consts  --      1.4177                 1.4548                 1.4719
 IR Inten    --     12.6642                21.0738                 4.7362

                     94                     95                     96
                      A                      A                      A
 Frequencies --   1529.9502              1545.3291              1641.1618
 Red. masses --      1.0483                 2.2168                 5.5126
 Frc consts  --      1.4458                 3.1190                 8.7480
 IR Inten    --     18.0349                19.6127                 2.1095

                     97                     98                     99
                      A                      A                      A
 Frequencies --   1662.6203              3051.8480              3056.5338
 Red. masses --      5.6156                 1.0641                 1.0458
 Frc consts  --      9.1461                 5.8391                 5.7567
 IR Inten    --     12.5630                39.5419                69.8003

                    100                    101                    102
                      A                      A                      A
 Frequencies --   3062.6471              3081.4259              3094.9150
 Red. masses --      1.0416                 1.0678                 1.0915
 Frc consts  --      5.7564                 5.9739                 6.1596
 IR Inten    --     71.2013                 8.8079                50.9208

                    103                    104                    105
                      A                      A                      A
 Frequencies --   3123.5386              3137.8696              3141.5176
 Red. masses --      1.1021                 1.0578                 1.0575
 Frc consts  --      6.3354                 6.1367                 6.1491
 IR Inten    --     32.4183                12.0943                17.2398

                    106                    107                    108
                      A                      A                      A
 Frequencies --   3144.3619              3146.6244              3190.5086
 Red. masses --      1.0928                 1.0966                 1.1037
 Frc consts  --      6.3659                 6.3974                 6.6196
 IR Inten    --     48.2667                 2.5333                 4.1172

                    109                    110                    111
                      A                      A                      A
 Frequencies --   3192.9026              3195.5421              3205.4501
 Red. masses --      1.0862                 1.0871                 1.0900
 Frc consts  --      6.5244                 6.5405                 6.5987
 IR Inten    --     14.5974                 9.2723                17.1550

                    112                    113                    114
                      A                      A                      A
 Frequencies --   3205.6764              3212.0132              3212.6120
 Red. masses --      1.1018                 1.1103                 1.0939
 Frc consts  --      6.6708                 6.7490                 6.6521
 IR Inten    --      5.9498                11.8056                74.3440

                    115                    116                    117
                      A                      A                      A
 Frequencies --   3218.2202              3224.5992              3549.8390
 Red. masses --      1.1121                 1.0977                 1.0763
 Frc consts  --      6.7859                 6.7251                 7.9912
 IR Inten    --      5.3566                31.4120               159.6592

 - Thermochemistry -
 -------------------
 Temperature   298.150 Kelvin.  Pressure   1.00000 Atm.
 Atom     1 has atomic number  8 and mass  15.99491

 Molecular mass:   332.08645 amu.
 Principal axes and moments of inertia in atomic units:
                           1         2         3
     Eigenvalues --  4909.145598791.82610**********
           X            0.99943   0.03137   0.01236
           Y           -0.03172   0.99907   0.02918
           Z           -0.01144  -0.02956   0.99950
 This molecule is an asymmetric top.
 Rotational symmetry number  1.
 Warning -- assumption of classical behavior for rotation
           may cause significant error
 Rotational temperatures (Kelvin)      0.01764     0.00985     0.00747
 Rotational constants (GHZ):           0.36763     0.20527     0.15571
 Zero-point vibrational energy     873624.6 (Joules/Mol)
                                  208.80128 (Kcal/Mol)
 Warning -- explicit consideration of  35 degrees of freedom as
           vibrations may cause significant error
 Vibrational temperatures:     29.41    39.71    51.41    64.08    78.90
          (Kelvin)            105.06   117.17   156.76   215.54   249.07
                              254.66   284.25   309.99   327.25   350.24
                              373.10   386.04   431.94   449.04   491.23
                              513.44   522.19   559.45   577.34   608.76
                              630.93   638.80   658.54   696.80   698.63
                              725.16   774.54   819.68   836.52   865.16
                              911.98   959.81  1027.92  1042.99  1076.14
                             1088.90  1114.96  1154.93  1178.09  1225.91
                             1251.67  1284.54  1325.11  1352.95  1367.11
                             1389.55  1414.47  1439.01  1447.02  1461.75
                             1498.73  1504.74  1523.40  1536.19  1538.50
                             1555.81  1583.04  1607.54  1626.32  1647.35
                             1698.86  1707.49  1715.29  1743.33  1748.61
                             1767.35  1769.99  1777.54  1813.78  1827.70
                             1837.97  1852.51  1901.43  1941.31  1962.39
                             2000.71  2031.75  2080.22  2091.17  2105.37
                             2118.80  2125.16  2152.02  2163.58  2164.34
                             2180.83  2184.60  2187.95  2201.26  2223.38
                             2361.27  2392.14  4390.93  4397.67  4406.47
                             4433.48  4452.89  4494.08  4514.69  4519.94
                             4524.04  4527.29  4590.43  4593.87  4597.67
                             4611.93  4612.25  4621.37  4622.23  4630.30
                             4639.48  5107.43

 Zero-point correction=                           0.332746 (Hartree/Particle)
 Thermal correction to Energy=                    0.354049
 Thermal correction to Enthalpy=                  0.354993
 Thermal correction to Gibbs Free Energy=         0.280863
 Sum of electronic and zero-point Energies=          -1713.734796
 Sum of electronic and thermal Energies=             -1713.713493
 Sum of electronic and thermal Enthalpies=           -1713.712549
 Sum of electronic and thermal Free Energies=        -1713.786679

                     E (Thermal)             CV                S
                      KCal/Mol        Cal/Mol-Kelvin    Cal/Mol-Kelvin
 Total                  222.169             81.390            156.020
 Electronic               0.000              0.000              0.000
 Translational            0.889              2.981             43.296
 Rotational               0.889              2.981             34.569
 Vibrational            220.392             75.428             78.155
 Vibration     1          0.593              1.986              6.591
 Vibration     2          0.593              1.984              5.995
 Vibration     3          0.594              1.982              5.483
 Vibration     4          0.595              1.980              5.046
 Vibration     5          0.596              1.976              4.635
 Vibration     6          0.599              1.967              4.070
 Vibration     7          0.600              1.962              3.856
 Vibration     8          0.606              1.942              3.287
 Vibration     9          0.618              1.903              2.675
 Vibration    10          0.627              1.876              2.401
 Vibration    11          0.628              1.871              2.360
 Vibration    12          0.637              1.843              2.156
 Vibration    13          0.645              1.817              1.997
 Vibration    14          0.651              1.799              1.899
 Vibration    15          0.659              1.774              1.778
 Vibration    16          0.668              1.747              1.666
 Vibration    17          0.673              1.731              1.607
 Vibration    18          0.693              1.673              1.416
 Vibration    19          0.700              1.651              1.351
 Vibration    20          0.721              1.593              1.206
 Vibration    21          0.732              1.561              1.136
 Vibration    22          0.737              1.549              1.109
 Vibration    23          0.757              1.494              1.005
 Vibration    24          0.767              1.467              0.958
 Vibration    25          0.785              1.420              0.881
 Vibration    26          0.799              1.386              0.831
 Vibration    27          0.803              1.374              0.814
 Vibration    28          0.816              1.344              0.773
 Vibration    29          0.840              1.285              0.699
 Vibration    30          0.842              1.282              0.695
 Vibration    31          0.859              1.241              0.648
 Vibration    32          0.893              1.165              0.569
 Vibration    33          0.926              1.097              0.505
 Vibration    34          0.938              1.072              0.483
 Vibration    35          0.960              1.029              0.447

 Optimization completed.
    -- Stationary point found.
 Normal termination of Gaussian 16 at Tue Sep 22 07:12:02 2020.

 ----------------------------------------------------------------------
 #p b3lyp/6-31G(d) scrf=(iefpcm,read,solvent=water) geom=allcheck guess
 =read
 ----------------------------------------------------------------------

 Structure from the checkpoint file:  "SM40.n.8.pdb.xyz.mst.n.w.chk"
 ----------------
 SM40.n.8.pdb.xyz
 ----------------
 Charge =  0 Multiplicity = 1

 SCF Done:  E(RB3LYP) =  -1714.06754680     A.U. after    6 cycles
 Normal termination of Gaussian 16 at Tue Sep 22 07:12:58 2020.

 -----------------------------
 #p B3LYP/6-31G* geom=allcheck
 -----------------------------

 Structure from the checkpoint file:  "SM40.n.8.pdb.xyz.mst.n.w.chk"
 ----------------
 SM40.n.8.pdb.xyz
 ----------------
 Charge =  0 Multiplicity = 1

 SCF Done:  E(RB3LYP) =  -1714.03849071     A.U. after   15 cycles
 Normal termination of Gaussian 16 at Tue Sep 22 07:14:14 2020.
 Gaussian 16:  ES64L-G16RevB.01 20-Dec-2017

 ----------------------------------------------------------------------
 #p mp2/aug-cc-pVDZ scf=(MaxCycle=2000,NoVarAcc,NoIncFock) maxdisk=120G
 B geom=allcheck
 ----------------------------------------------------------------------

 Structure from the checkpoint file:  "SM40.n.8.pdb.xyz.mst.n.w.chk"
 ----------------
 SM40.n.8.pdb.xyz
 ----------------
 Charge =  0 Multiplicity = 1

                         Standard orientation:
 ---------------------------------------------------------------------
 Center     Atomic      Atomic             Coordinates (Angstroms)
 Number     Number       Type             X           Y           Z
 ---------------------------------------------------------------------
      1          8           0        1.916752    1.839828   -1.282734
      2         16           0        0.526846    1.820298   -0.803279
      3          7           0       -0.082358    0.272658   -0.636610
      4          6           0        0.730764   -0.908987   -0.313672
      5          6           0        1.539661   -0.750261    1.012576
      6         16           0        3.015068   -1.448332    0.204788
      7          6           0        1.957783   -1.197152   -1.259588
      8          8           0        4.203890   -0.575074    0.259605
      9          8           0        3.187758   -2.882874    0.522142
     10          6           0       -0.186456   -2.147108   -0.285075
     11          6           0       -1.319927   -2.159486    0.755501
     12          6           0       -2.584681   -1.404636    0.395637
     13          6           0       -3.219538   -1.590945   -0.840840
     14          6           0       -4.409283   -0.927531   -1.143684
     15          6           0       -4.992892   -0.067650   -0.210084
     16          6           0       -4.376870    0.119179    1.027996
     17          6           0       -3.184502   -0.544740    1.324677
     18          7           0        0.594955    2.316115    0.798878
     19          6           0        1.521277    3.434899    1.049334
     20          6           0       -0.720409    2.488655    1.434282
     21          8           0       -0.492140    2.534750   -1.586960
     22          1           0       -0.751491    0.109304   -1.386845
     23          1           0        1.184879   -1.329408    1.863160
     24          1           0        1.708339    0.288474    1.295928
     25          1           0        1.875396   -2.077356   -1.895968
     26          1           0        2.295127   -0.323633   -1.815655
     27          1           0        0.467985   -3.002258   -0.094061
     28          1           0       -0.592733   -2.298413   -1.291045
     29          1           0       -0.945531   -1.795839    1.718770
     30          1           0       -1.582896   -3.211783    0.918492
     31          1           0       -2.783126   -2.263589   -1.573392
     32          1           0       -4.882289   -1.085616   -2.107806
     33          1           0       -5.917981    0.448378   -0.445013
     34          1           0       -4.821574    0.781828    1.763750
     35          1           0       -2.711440   -0.399581    2.291624
     36          1           0        2.482086    3.220276    0.586942
     37          1           0        1.650641    3.506051    2.130518
     38          1           0        1.133172    4.389537    0.674973
     39          1           0       -1.343308    1.620403    1.223933
     40          1           0       -1.226876    3.398017    1.091619
     41          1           0       -0.556832    2.553861    2.511286
 ---------------------------------------------------------------------

 SCF Done:  E(RHF) =  -1707.24805688     A.U. after   17 cycles
 E2 =    -0.3326342761D+01 EUMP2 =    -0.17105743996429D+04

 The electronic state is 1-A.
 Alpha  occ. eigenvalues --  -92.25602 -92.19613 -20.57331 -20.57191 -20.55623
 Alpha  occ. eigenvalues --  -20.55459 -15.63224 -15.62718 -11.34434 -11.29169
 Alpha  occ. eigenvalues --  -11.28751 -11.28683 -11.28441 -11.27225 -11.26902
 Alpha  occ. eigenvalues --  -11.26545 -11.26059 -11.26022 -11.25676 -11.25634
 Alpha  occ. eigenvalues --  -11.25510  -9.22096  -9.16879  -6.90648  -6.90601
 Alpha  occ. eigenvalues --   -6.90556  -6.85369  -6.85278  -6.85212  -1.48176
 Alpha  occ. eigenvalues --   -1.43675  -1.35173  -1.32412  -1.27909  -1.26069
 Alpha  occ. eigenvalues --   -1.17562  -1.15033  -1.08979  -1.03357  -1.02279
 Alpha  occ. eigenvalues --   -0.99188  -0.98488  -0.96753  -0.92658  -0.86639
 Alpha  occ. eigenvalues --   -0.84542  -0.82431  -0.81216  -0.78392  -0.74013
 Alpha  occ. eigenvalues --   -0.72659  -0.71653  -0.70947  -0.69097  -0.67503
 Alpha  occ. eigenvalues --   -0.66785  -0.65840  -0.65148  -0.64562  -0.63289
 Alpha  occ. eigenvalues --   -0.62984  -0.62057  -0.61862  -0.60952  -0.60246
 Alpha  occ. eigenvalues --   -0.59168  -0.58794  -0.58003  -0.57340  -0.55644
 Alpha  occ. eigenvalues --   -0.55045  -0.54510  -0.53163  -0.51909  -0.50702
 Alpha  occ. eigenvalues --   -0.50527  -0.50386  -0.50068  -0.49137  -0.48340
 Alpha  occ. eigenvalues --   -0.47954  -0.47236  -0.46018  -0.44842  -0.41976
 Alpha  occ. eigenvalues --   -0.41683  -0.35445  -0.34301
 Alpha virt. eigenvalues --    0.02122   0.02719   0.03261   0.03750   0.04289
 Alpha virt. eigenvalues --    0.04627   0.05056   0.05641   0.05949   0.06669
 Alpha virt. eigenvalues --    0.06953   0.07085   0.07647   0.07875   0.08291

 Mulliken charges:
               1
     1  O   -1.229383
     2  S    3.320033
     3  N   -0.982469
     4  C   -0.070315
     5  C    0.562895
     6  S    2.967338
     7  C    0.445649
     8  O   -1.262008
     9  O   -1.281463
    10  C    0.715461
    11  C    0.377198
    12  C    0.452733
    13  C    0.724581
    14  C    0.082595
    15  C    0.777913
    16  C   -0.003734
    17  C    0.966090
    18  N   -1.088583
    19  C    0.876664
    20  C    0.895786
    21  O   -1.166743
    22  H   -0.075545
    23  H   -0.279424
    24  H   -0.361477
    25  H   -0.360501
    26  H   -0.270328
    27  H   -0.125654
    28  H   -0.164819
    29  H   -0.352495
    30  H   -0.066426
    31  H   -0.720904
    32  H   -0.515518
    33  H   -0.460684
    34  H   -0.535668
    35  H   -0.700738
    36  H   -0.142756
    37  H   -0.160093
    38  H   -0.086348
    39  H   -0.519145
    40  H   -0.007976
    41  H   -0.173740
 Sum of Mulliken charges =  -0.00000

 Dipole moment (field-independent basis, Debye):
    X=             -7.0511    Y=              0.4493    Z=              2.2262  Tot=              7.4078
 Quadrupole moment (field-independent basis, Debye-Ang):
   XX=           -169.9024   YY=           -146.7472   ZZ=           -134.2797
   XY=              9.7222   XZ=             -0.9724   YZ=             19.8282

 Normal termination of Gaussian 16 at Tue Sep 22 09:03:07 2020.
