 Gaussian 16, Revision B.01,

 ----------------------------------------------------------------------
 #p b3lyp/6-31G(d) opt freq NoSymm scf=(MaxCycle=2000,NoVarAcc,NoIncFoc
 k) scrf=(iefpcm,read,solvent=water)
 ----------------------------------------------------------------------

 --------------------
 SM40_38.n.15.pdb.xyz
 --------------------
 Symbolic Z-matrix:
 Charge =  0 Multiplicity = 1

 SCF Done:  E(RB3LYP) =  -1714.06774464     A.U. after   13 cycles
 SCF Done:  E(RB3LYP) =  -1714.06774469     A.U. after   10 cycles
 SCF Done:  E(RB3LYP) =  -1714.06778589     A.U. after    9 cycles
 SCF Done:  E(RB3LYP) =  -1714.06776279     A.U. after    8 cycles
 SCF Done:  E(RB3LYP) =  -1714.06776853     A.U. after    8 cycles
 SCF Done:  E(RB3LYP) =  -1714.06776757     A.U. after    7 cycles
 Optimization completed.
    -- Stationary point found.
 Normal termination of Gaussian 16 at Tue Sep 22 06:27:16 2020.

 --------------------------------------------------------------------
 #P Geom=AllCheck Guess=TCheck SCRF=Check GenChk RB3LYP/6-31G(d) Freq
 --------------------------------------------------------------------

 Structure from the checkpoint file:  "SM40_38.n.15.pdb.xyz.mst.n.w.chk"
 --------------------
 SM40_38.n.15.pdb.xyz
 --------------------
 Charge =  0 Multiplicity = 1

 SCF Done:  E(RB3LYP) =  -1714.06776757     A.U. after    1 cycles

  Exact polarizability: 283.382  26.980 216.324   9.872 -12.619 246.155
 Approx polarizability: 304.019  33.742 247.721   6.694 -12.669 284.474

                      1                      2                      3
                      A                      A                      A
 Frequencies --     15.7102                22.2020                41.2258
 Red. masses --      4.2316                 4.1547                 4.7102
 Frc consts  --      0.0006                 0.0012                 0.0047
 IR Inten    --      1.7932                 0.3670                 2.6937

                      4                      5                      6
                      A                      A                      A
 Frequencies --     44.8728                59.5362                79.0248
 Red. masses --      5.6357                 4.4199                 4.8944
 Frc consts  --      0.0067                 0.0092                 0.0180
 IR Inten    --      1.5607                 2.4477                 5.4692

                      7                      8                      9
                      A                      A                      A
 Frequencies --     80.4440               122.3067               122.7631
 Red. masses --      3.5322                 3.4440                 6.0895
 Frc consts  --      0.0135                 0.0304                 0.0541
 IR Inten    --      4.0430                 1.0741                 2.7684

                     10                     11                     12
                      A                      A                      A
 Frequencies --    162.7978               183.5404               189.6728
 Red. masses --      4.3218                 5.4206                 1.3294
 Frc consts  --      0.0675                 0.1076                 0.0282
 IR Inten    --      6.7047                13.3640                 0.4297

                     13                     14                     15
                      A                      A                      A
 Frequencies --    194.6443               203.8614               225.9603
 Red. masses --      5.2584                 1.2027                 2.6544
 Frc consts  --      0.1174                 0.0294                 0.0799
 IR Inten    --      1.0479                 2.6280                15.7615

                     16                     17                     18
                      A                      A                      A
 Frequencies --    252.6020               263.1256               303.9337
 Red. masses --      3.1247                 8.3673                 2.6959
 Frc consts  --      0.1175                 0.3413                 0.1467
 IR Inten    --      4.2933                 9.6728                 7.5817

                     19                     20                     21
                      A                      A                      A
 Frequencies --    311.9567               317.4443               351.6565
 Red. masses --      3.3701                 3.1217                 2.8647
 Frc consts  --      0.1932                 0.1853                 0.2087
 IR Inten    --      5.3649                 0.1405                 5.3058

                     22                     23                     24
                      A                      A                      A
 Frequencies --    360.1996               363.3864               396.1560
 Red. masses --      2.6006                 2.8006                 5.0679
 Frc consts  --      0.1988                 0.2179                 0.4686
 IR Inten    --      4.9436                 9.8525                23.5456

                     25                     26                     27
                      A                      A                      A
 Frequencies --    399.0040               419.2932               428.3947
 Red. masses --      3.8397                 2.9750                 1.9421
 Frc consts  --      0.3602                 0.3082                 0.2100
 IR Inten    --     18.6213                 0.0439               137.9279

                     28                     29                     30
                      A                      A                      A
 Frequencies --    466.4491               478.1141               492.9538
 Red. masses --      3.4965                 4.1047                 4.8549
 Frc consts  --      0.4482                 0.5528                 0.6951
 IR Inten    --     60.3796                38.3332                29.2672

                     31                     32                     33
                      A                      A                      A
 Frequencies --    512.3229               524.9017               568.6003
 Red. masses --      3.7527                 4.8026                 7.7631
 Frc consts  --      0.5803                 0.7796                 1.4788
 IR Inten    --     15.0527                56.4919                63.9811

                     34                     35                     36
                      A                      A                      A
 Frequencies --    593.6746               622.6183               634.4852
 Red. masses --      6.1831                 3.8463                 6.3297
 Frc consts  --      1.2840                 0.8785                 1.5013
 IR Inten    --     36.6385                51.0397                 0.1664

                     37                     38                     39
                      A                      A                      A
 Frequencies --    663.9006               712.5527               719.1818
 Red. masses --      5.8725                 3.1146                 1.9404
 Frc consts  --      1.5250                 0.9317                 0.5913
 IR Inten    --    123.2018                10.9699                25.2954

                     40                     41                     42
                      A                      A                      A
 Frequencies --    753.3030               771.3226               781.9101
 Red. masses --      4.1543                 1.8781                 1.3930
 Frc consts  --      1.3889                 0.6583                 0.5018
 IR Inten    --     76.9055                71.5420                 8.4013

                     43                     44                     45
                      A                      A                      A
 Frequencies --    815.1558               825.3884               841.0901
 Red. masses --      3.3678                 1.8109                 3.6518
 Frc consts  --      1.3185                 0.7269                 1.5221
 IR Inten    --      6.6676                15.5468                 9.8369

                     46                     47                     48
                      A                      A                      A
 Frequencies --    859.2373               867.3684               921.8123
 Red. masses --      3.1318                 1.2627                 2.5691
 Frc consts  --      1.3623                 0.5597                 1.2862
 IR Inten    --    128.2727                 2.1837                45.3818

                     49                     50                     51
                      A                      A                      A
 Frequencies --    934.3530               940.5944               951.9258
 Red. masses --      1.5133                 3.2377                 2.3921
 Frc consts  --      0.7784                 1.6877                 1.2771
 IR Inten    --      7.2332               250.2242                12.9449

                     52                     53                     54
                      A                      A                      A
 Frequencies --    979.1104              1005.2627              1016.7571
 Red. masses --      1.3543                 1.2560                 5.7349
 Frc consts  --      0.7650                 0.7478                 3.4931
 IR Inten    --      0.1219                 0.2811                 2.4548

                     55                     56                     57
                      A                      A                      A
 Frequencies --   1018.4175              1050.1925              1054.7937
 Red. masses --      1.7729                 1.6658                 2.0044
 Frc consts  --      1.0834                 1.0825                 1.3139
 IR Inten    --     17.4891                 7.2987                 9.3105

                     58                     59                     60
                      A                      A                      A
 Frequencies --   1058.7772              1067.1200              1071.2470
 Red. masses --      2.5465                 1.6204                 1.4173
 Frc consts  --      1.6819                 1.0872                 0.9583
 IR Inten    --     59.2699                21.9732                15.9603

                     61                     62                     63
                      A                      A                      A
 Frequencies --   1081.7820              1101.7824              1124.6471
 Red. masses --      5.3863                 9.7877                 1.5719
 Frc consts  --      3.7138                 7.0004                 1.1714
 IR Inten    --    320.5690               281.2459                 1.6625

                     64                     65                     66
                      A                      A                      A
 Frequencies --   1131.6657              1165.3499              1177.4056
 Red. masses --      1.2283                 4.2315                 1.3944
 Frc consts  --      0.9268                 3.3857                 1.1389
 IR Inten    --      1.4442                59.0009                 6.1381

                     67                     68                     69
                      A                      A                      A
 Frequencies --   1184.7332              1197.4214              1203.1134
 Red. masses --      1.0922                 1.2681                 1.1363
 Frc consts  --      0.9032                 1.0713                 0.9690
 IR Inten    --      0.1766                 3.3474                 0.5785

                     70                     71                     72
                      A                      A                      A
 Frequencies --   1215.6887              1232.5426              1235.8561
 Red. masses --      3.3206                 2.1653                 2.0566
 Frc consts  --      2.8914                 1.9381                 1.8507
 IR Inten    --     45.1451               110.7027                 5.5526

                     73                     74                     75
                      A                      A                      A
 Frequencies --   1241.7180              1264.8817              1274.2805
 Red. masses --      1.7925                 1.9246                 2.5241
 Frc consts  --      1.6284                 1.8142                 2.4148
 IR Inten    --     63.8706                39.5949               205.1584

                     76                     77                     78
                      A                      A                      A
 Frequencies --   1274.7853              1285.1841              1329.4278
 Red. masses --      4.3478                 4.1654                 1.4362
 Frc consts  --      4.1629                 4.0535                 1.4955
 IR Inten    --    271.6023               219.9875                26.9317

                     79                     80                     81
                      A                      A                      A
 Frequencies --   1335.9421              1361.3584              1368.0577
 Red. masses --      1.3746                 2.6137                 1.4292
 Frc consts  --      1.4455                 2.8540                 1.5760
 IR Inten    --     15.6843                 0.1430                 1.0966

                     82                     83                     84
                      A                      A                      A
 Frequencies --   1406.4296              1451.0830              1453.2522
 Red. masses --      1.4817                 1.1168                 1.1378
 Frc consts  --      1.7268                 1.3856                 1.4158
 IR Inten    --     16.8863                44.7343                 3.1175

                     85                     86                     87
                      A                      A                      A
 Frequencies --   1464.5026              1469.9508              1487.8897
 Red. masses --      1.1956                 1.1571                 1.1088
 Frc consts  --      1.5109                 1.4731                 1.4463
 IR Inten    --     56.5565                32.5646                 7.9196

                     88                     89                     90
                      A                      A                      A
 Frequencies --   1498.0270              1499.7331              1503.7151
 Red. masses --      1.3193                 1.5834                 1.0478
 Frc consts  --      1.7444                 2.0984                 1.3959
 IR Inten    --      2.5692                 3.6285                13.9613

                     91                     92                     93
                      A                      A                      A
 Frequencies --   1513.3412              1515.6507              1521.5213
 Red. masses --      1.0535                 1.0499                 1.0944
 Frc consts  --      1.4215                 1.4210                 1.4927
 IR Inten    --     14.9255                20.0235                 3.4010

                     94                     95                     96
                      A                      A                      A
 Frequencies --   1528.5963              1543.6202              1642.9317
 Red. masses --      1.0490                 2.2538                 5.5516
 Frc consts  --      1.4442                 3.1640                 8.8289
 IR Inten    --     12.8219                19.1524                 1.6928

                     97                     98                     99
                      A                      A                      A
 Frequencies --   1662.8732              3056.6248              3062.3520
 Red. masses --      5.7270                 1.0450                 1.0435
 Frc consts  --      9.3303                 5.7526                 5.7658
 IR Inten    --      9.1807                56.8786                78.1764

                    100                    101                    102
                      A                      A                      A
 Frequencies --   3062.8193              3078.3768              3109.6127
 Red. masses --      1.0619                 1.0594                 1.1004
 Frc consts  --      5.8691                 5.9149                 6.2690
 IR Inten    --     26.4544                55.6789                 1.6677

                    103                    104                    105
                      A                      A                      A
 Frequencies --   3127.9572              3132.9891              3146.0797
 Red. masses --      1.1041                 1.0584                 1.0925
 Frc consts  --      6.3648                 6.1207                 6.3709
 IR Inten    --     59.5784                25.2796                45.2761

                    106                    107                    108
                      A                      A                      A
 Frequencies --   3147.5450              3149.1746              3190.5621
 Red. masses --      1.0958                 1.0576                 1.1039
 Frc consts  --      6.3960                 6.1794                 6.6208
 IR Inten    --      3.4977                 7.1200                10.6044

                    109                    110                    111
                      A                      A                      A
 Frequencies --   3190.6474              3194.2193              3203.4798
 Red. masses --      1.0866                 1.0871                 1.1025
 Frc consts  --      6.5175                 6.5349                 6.6663
 IR Inten    --     13.6887                11.8063                 7.5327

                    112                    113                    114
                      A                      A                      A
 Frequencies --   3203.7377              3205.0994              3211.4305
 Red. masses --      1.0901                 1.1108                 1.0939
 Frc consts  --      6.5921                 6.7230                 6.6471
 IR Inten    --     16.2791                19.6258                74.8091

                    115                    116                    117
                      A                      A                      A
 Frequencies --   3223.4412              3225.4731              3542.2926
 Red. masses --      1.0978                 1.1111                 1.0760
 Frc consts  --      6.7205                 6.8108                 7.9552
 IR Inten    --     32.1820                 3.8891               142.1837

 - Thermochemistry -
 -------------------
 Temperature   298.150 Kelvin.  Pressure   1.00000 Atm.
 Atom     1 has atomic number 16 and mass  31.97207

 Molecular mass:   332.08645 amu.
 Principal axes and moments of inertia in atomic units:
                           1         2         3
     Eigenvalues --  4183.01133********************
           X            0.99992  -0.00462   0.01143
           Y            0.00513   0.99899  -0.04463
           Z           -0.01121   0.04469   0.99894
 This molecule is an asymmetric top.
 Rotational symmetry number  1.
 Warning -- assumption of classical behavior for rotation
           may cause significant error
 Rotational temperatures (Kelvin)      0.02071     0.00670     0.00577
 Rotational constants (GHZ):           0.43145     0.13962     0.12014
 Zero-point vibrational energy     872707.3 (Joules/Mol)
                                  208.58205 (Kcal/Mol)
 Warning -- explicit consideration of  34 degrees of freedom as
           vibrations may cause significant error
 Vibrational temperatures:     22.60    31.94    59.31    64.56    85.66
          (Kelvin)            113.70   115.74   175.97   176.63   234.23
                              264.07   272.90   280.05   293.31   325.11
                              363.44   378.58   437.29   448.84   456.73
                              505.96   518.25   522.83   569.98   574.08
                              603.27   616.36   671.12   687.90   709.25
                              737.12   755.22   818.09   854.17   895.81
                              912.88   955.20  1025.20  1034.74  1083.83
                             1109.76  1124.99  1172.83  1187.55  1210.14
                             1236.25  1247.95  1326.28  1344.33  1353.31
                             1369.61  1408.72  1446.35  1462.89  1465.28
                             1510.99  1517.61  1523.34  1535.35  1541.29
                             1556.44  1585.22  1618.12  1628.21  1676.68
                             1694.02  1704.57  1722.82  1731.01  1749.10
                             1773.35  1778.12  1786.56  1819.88  1833.41
                             1834.13  1849.09  1912.75  1922.12  1958.69
                             1968.33  2023.54  2087.78  2090.91  2107.09
                             2114.93  2140.74  2155.33  2157.78  2163.51
                             2177.36  2180.68  2189.13  2199.31  2220.93
                             2363.81  2392.50  4397.80  4406.04  4406.71
                             4429.10  4474.04  4500.43  4507.67  4526.51
                             4528.62  4530.96  4590.51  4590.63  4595.77
                             4609.09  4609.46  4611.42  4620.53  4637.81
                             4640.74  5096.57

 Zero-point correction=                           0.332397 (Hartree/Particle)
 Thermal correction to Energy=                    0.353936
 Thermal correction to Enthalpy=                  0.354880
 Thermal correction to Gibbs Free Energy=         0.279752
 Sum of electronic and zero-point Energies=          -1713.735371
 Sum of electronic and thermal Energies=             -1713.713832
 Sum of electronic and thermal Enthalpies=           -1713.712887
 Sum of electronic and thermal Free Energies=        -1713.788016

                     E (Thermal)             CV                S
                      KCal/Mol        Cal/Mol-Kelvin    Cal/Mol-Kelvin
 Total                  222.098             81.694            158.121
 Electronic               0.000              0.000              0.000
 Translational            0.889              2.981             43.296
 Rotational               0.889              2.981             35.050
 Vibrational            220.321             75.732             79.775
 Vibration     1          0.593              1.986              7.114
 Vibration     2          0.593              1.985              6.427
 Vibration     3          0.594              1.981              5.199
 Vibration     4          0.595              1.979              5.031
 Vibration     5          0.597              1.974              4.473
 Vibration     6          0.600              1.963              3.915
 Vibration     7          0.600              1.962              3.880
 Vibration     8          0.610              1.931              3.064
 Vibration     9          0.610              1.930              3.056
 Vibration    10          0.623              1.888              2.517
 Vibration    11          0.631              1.862              2.292
 Vibration    12          0.633              1.854              2.231
 Vibration    13          0.635              1.847              2.183
 Vibration    14          0.640              1.834              2.098
 Vibration    15          0.650              1.801              1.911
 Vibration    16          0.664              1.758              1.712
 Vibration    17          0.670              1.740              1.641
 Vibration    18          0.695              1.666              1.395
 Vibration    19          0.700              1.651              1.352
 Vibration    20          0.704              1.640              1.323
 Vibration    21          0.728              1.572              1.159
 Vibration    22          0.735              1.554              1.121
 Vibration    23          0.737              1.548              1.108
 Vibration    24          0.763              1.478              0.977
 Vibration    25          0.765              1.472              0.966
 Vibration    26          0.782              1.428              0.894
 Vibration    27          0.790              1.408              0.864
 Vibration    28          0.824              1.324              0.748
 Vibration    29          0.835              1.299              0.715
 Vibration    30          0.849              1.266              0.676
 Vibration    31          0.867              1.223              0.628
 Vibration    32          0.880              1.195              0.599
 Vibration    33          0.925              1.099              0.507
 Vibration    34          0.951              1.045              0.461

                           ! Non-Optimized Parameters !
 Normal termination of Gaussian 16 at Tue Sep 22 06:44:46 2020.

 ----------------------------------------------------------------------
 #p b3lyp/6-31G(d) scrf=(iefpcm,read,solvent=water) geom=allcheck guess
 =read
 ----------------------------------------------------------------------

 Structure from the checkpoint file:  "SM40_38.n.15.pdb.xyz.mst.n.w.chk"
 --------------------
 SM40_38.n.15.pdb.xyz
 --------------------
 Charge =  0 Multiplicity = 1

 SCF Done:  E(RB3LYP) =  -1714.06777300     A.U. after    5 cycles
 Normal termination of Gaussian 16 at Tue Sep 22 06:45:25 2020.

 -----------------------------
 #p B3LYP/6-31G* geom=allcheck
 -----------------------------

 Structure from the checkpoint file:  "SM40_38.n.15.pdb.xyz.mst.n.w.chk"
 --------------------
 SM40_38.n.15.pdb.xyz
 --------------------
 Charge =  0 Multiplicity = 1

 SCF Done:  E(RB3LYP) =  -1714.03737561     A.U. after   15 cycles
 Normal termination of Gaussian 16 at Tue Sep 22 06:46:27 2020.
 Gaussian 16:  ES64L-G16RevB.01 20-Dec-2017

 ----------------------------------------------------------------------
 #p mp2/aug-cc-pVDZ scf=(MaxCycle=2000,NoVarAcc,NoIncFock) maxdisk=120G
 B geom=allcheck
 ----------------------------------------------------------------------

 Structure from the checkpoint file:  "SM40_38.n.15.pdb.xyz.mst.n.w.chk"
 --------------------
 SM40_38.n.15.pdb.xyz
 --------------------
 Charge =  0 Multiplicity = 1

                         Standard orientation:
 ---------------------------------------------------------------------
 Center     Atomic      Atomic             Coordinates (Angstroms)
 Number     Number       Type             X           Y           Z
 ---------------------------------------------------------------------
      1         16           0        2.745406   -1.084974   -0.730574
      2          7           0        1.081520   -1.071463   -0.590876
      3          6           0        0.265247    0.119728   -0.275243
      4          6           0        0.461763    1.352077   -1.235250
      5         16           0        0.818899    2.426409    0.196692
      6          6           0        0.720106    0.816777    1.050008
      7          8           0        2.173175    3.012895    0.189700
      8          8           0       -0.315882    3.312049    0.533467
      9          6           0       -1.186099   -0.406439   -0.236776
     10          6           0       -2.282404    0.620418    0.096622
     11          6           0       -3.652430   -0.022542    0.088911
     12          6           0       -4.180156   -0.598551    1.252115
     13          6           0       -5.432541   -1.214891    1.241238
     14          6           0       -6.179175   -1.263662    0.062246
     15          6           0       -5.664737   -0.691910   -1.103243
     16          6           0       -4.411824   -0.076822   -1.087236
     17          8           0        3.291557    0.192129   -1.211934
     18          8           0        3.040755   -2.303396   -1.500008
     19          1           0        0.700509   -1.621364   -1.358932
     20          1           0       -0.417332    1.671442   -1.792756
     21          1           0        1.337417    1.270562   -1.875621
     22          1           0       -0.000800    0.809111    1.867530
     23          1           0        1.702001    0.489924    1.392190
     24          1           0       -1.219281   -1.220728    0.493312
     25          1           0       -1.409956   -0.846595   -1.215263
     26          1           0       -2.261969    1.438178   -0.629925
     27          1           0       -2.095434    1.061921    1.079752
     28          1           0       -3.606767   -0.557915    2.173977
     29          1           0       -5.826349   -1.651699    2.153450
     30          1           0       -7.154513   -1.739172    0.052726
     31          1           0       -6.240122   -0.719792   -2.023407
     32          1           0       -4.019128    0.371495   -1.995576
     33          7           0        3.195607   -1.197470    0.883017
     34          6           0        4.586416   -0.790417    1.154067
     35          1           0        4.776968    0.175446    0.691059
     36          1           0        4.685400   -0.695855    2.236583
     37          1           0        5.315092   -1.526394    0.794156
     38          6           0        2.809825   -2.460883    1.531985
     39          1           0        3.431575   -3.301443    1.203863
     40          1           0        2.930114   -2.323707    2.607710
     41          1           0        1.763012   -2.670558    1.315820
 ---------------------------------------------------------------------

 SCF Done:  E(RHF) =  -1707.24752494     A.U. after   16 cycles
 E2 =    -0.3321554257D+01 EUMP2 =    -0.17105690791933D+04

 The electronic state is 1-A.
 Alpha  occ. eigenvalues --  -92.25760 -92.19700 -20.57416 -20.57384 -20.55672
 Alpha  occ. eigenvalues --  -20.55421 -15.63603 -15.62929 -11.34720 -11.29341
 Alpha  occ. eigenvalues --  -11.29196 -11.28991 -11.28548 -11.27262 -11.26193
 Alpha  occ. eigenvalues --  -11.25795 -11.25426 -11.25408 -11.25140 -11.25126
 Alpha  occ. eigenvalues --  -11.25030  -9.22260  -9.16957  -6.90810  -6.90766
 Alpha  occ. eigenvalues --   -6.90722  -6.85447  -6.85355  -6.85292  -1.48334
 Alpha  occ. eigenvalues --   -1.43733  -1.35283  -1.32425  -1.28172  -1.26243
 Alpha  occ. eigenvalues --   -1.17113  -1.14880  -1.08653  -1.02735  -1.02107
 Alpha  occ. eigenvalues --   -0.99428  -0.98606  -0.97033  -0.92513  -0.85681
 Alpha  occ. eigenvalues --   -0.84111  -0.82674  -0.80684  -0.78370  -0.74122
 Alpha  occ. eigenvalues --   -0.73198  -0.71395  -0.70282  -0.69005  -0.68172
 Alpha  occ. eigenvalues --   -0.67384  -0.66098  -0.65104  -0.64628  -0.63463
 Alpha  occ. eigenvalues --   -0.62740  -0.62406  -0.61434  -0.60239  -0.59697
 Alpha  occ. eigenvalues --   -0.59088  -0.58340  -0.58141  -0.57240  -0.56162
 Alpha  occ. eigenvalues --   -0.55099  -0.53828  -0.52655  -0.51648  -0.50981
 Alpha  occ. eigenvalues --   -0.50518  -0.49966  -0.49612  -0.49185  -0.48349
 Alpha  occ. eigenvalues --   -0.48070  -0.47404  -0.45933  -0.44976  -0.42227
 Alpha  occ. eigenvalues --   -0.41856  -0.34780  -0.33950
 Alpha virt. eigenvalues --    0.02150   0.02820   0.03324   0.03847   0.03981
 Alpha virt. eigenvalues --    0.04603   0.05118   0.05449   0.05819   0.06377
 Alpha virt. eigenvalues --    0.06480   0.07066   0.07336   0.08029   0.08352

 Mulliken charges:
               1
     1  S    3.286351
     2  N   -1.074454
     3  C    0.486986
     4  C    0.328480
     5  S    3.008541
     6  C    0.386979
     7  O   -1.272594
     8  O   -1.285370
     9  C    0.233225
    10  C    0.866139
    11  C    1.218710
    12  C    0.497113
    13  C    0.004192
    14  C    0.672748
    15  C    0.015772
    16  C    0.486606
    17  O   -1.212415
    18  O   -1.174144
    19  H   -0.058911
    20  H   -0.382913
    21  H   -0.293606
    22  H   -0.347860
    23  H   -0.371343
    24  H   -0.192411
    25  H   -0.207163
    26  H   -0.287767
    27  H   -0.299504
    28  H   -0.682701
    29  H   -0.466224
    30  H   -0.435044
    31  H   -0.463630
    32  H   -0.679781
    33  N   -1.173327
    34  C    0.848995
    35  H   -0.131872
    36  H   -0.157745
    37  H   -0.085982
    38  C    0.757181
    39  H   -0.061228
    40  H   -0.162630
    41  H   -0.137398
 Sum of Mulliken charges =  -0.00000

 Dipole moment (field-independent basis, Debye):
    X=             -3.0055    Y=             -5.9880    Z=              2.4131  Tot=              7.1213
 Quadrupole moment (field-independent basis, Debye-Ang):
   XX=           -142.1189   YY=           -169.7121   ZZ=           -132.2223
   XY=             -2.9075   XZ=             18.0299   YZ=            -12.7809

 Normal termination of Gaussian 16 at Tue Sep 22 08:12:48 2020.
