 Gaussian 16, Revision B.01,

 ----------------------------------------------------------------------
 #p b3lyp/6-31G(d) opt freq NoSymm scf=(MaxCycle=2000,NoVarAcc,NoIncFoc
 k) scrf=(iefpcm,read,solvent=water)
 ----------------------------------------------------------------------

 --------------------
 SM40_38.b.15.pdb.xyz
 --------------------
 Symbolic Z-matrix:
 Charge =  1 Multiplicity = 1

 SCF Done:  E(RB3LYP) =  -1714.50266122     A.U. after   13 cycles
 SCF Done:  E(RB3LYP) =  -1714.50157741     A.U. after   11 cycles
 SCF Done:  E(RB3LYP) =  -1714.50221816     A.U. after   10 cycles
 SCF Done:  E(RB3LYP) =  -1714.50264238     A.U. after   10 cycles
 SCF Done:  E(RB3LYP) =  -1714.50266216     A.U. after    9 cycles
 SCF Done:  E(RB3LYP) =  -1714.50234910     A.U. after   10 cycles
 SCF Done:  E(RB3LYP) =  -1714.50234523     A.U. after    9 cycles
 SCF Done:  E(RB3LYP) =  -1714.50264459     A.U. after   10 cycles
 SCF Done:  E(RB3LYP) =  -1714.50266139     A.U. after    9 cycles
 SCF Done:  E(RB3LYP) =  -1714.50266279     A.U. after    8 cycles
 SCF Done:  E(RB3LYP) =  -1714.50266199     A.U. after    2 cycles
 SCF Done:  E(RB3LYP) =  -1714.50232426     A.U. after   10 cycles
 SCF Done:  E(RB3LYP) =  -1714.50238979     A.U. after    8 cycles
 SCF Done:  E(RB3LYP) =  -1714.50264635     A.U. after   10 cycles
 SCF Done:  E(RB3LYP) =  -1714.50266193     A.U. after    9 cycles
 SCF Done:  E(RB3LYP) =  -1714.50237927     A.U. after   10 cycles
 Optimization completed.
    -- Stationary point found.
 Normal termination of Gaussian 16 at Thu Sep 24 02:44:32 2020.

 --------------------------------------------------------------------
 #P Geom=AllCheck Guess=TCheck SCRF=Check GenChk RB3LYP/6-31G(d) Freq
 --------------------------------------------------------------------

 Structure from the checkpoint file:  "SM40_38.b.15.pdb.xyz.mst.b.w.chk"
 --------------------
 SM40_38.b.15.pdb.xyz
 --------------------
 Charge =  1 Multiplicity = 1

 SCF Done:  E(RB3LYP) =  -1714.50237927     A.U. after    1 cycles

  Exact polarizability: 277.489  28.681 223.729   7.372 -11.732 244.811
 Approx polarizability: 299.954  36.290 254.423   4.512  -7.439 284.446

                      1                      2                      3
                      A                      A                      A
 Frequencies --     19.0752                32.1189                46.6672
 Red. masses --      3.8203                 4.3232                 5.7332
 Frc consts  --      0.0008                 0.0026                 0.0074
 IR Inten    --      2.0165                 6.6113                 4.3990

                      4                      5                      6
                      A                      A                      A
 Frequencies --     56.2206                71.5569                84.8459
 Red. masses --      4.9942                 8.3300                 4.0138
 Frc consts  --      0.0093                 0.0251                 0.0170
 IR Inten    --      1.4091                 1.6556                16.3574

                      7                      8                      9
                      A                      A                      A
 Frequencies --     93.2516               120.1330               130.1936
 Red. masses --      3.4009                 3.9893                 5.4406
 Frc consts  --      0.0174                 0.0339                 0.0543
 IR Inten    --      3.3190                 2.3878                 0.7107

                     10                     11                     12
                      A                      A                      A
 Frequencies --    156.0034               189.1787               198.2861
 Red. masses --      4.2905                 7.3670                 3.3956
 Frc consts  --      0.0615                 0.1553                 0.0787
 IR Inten    --      2.4209                 7.8761                 4.7377

                     13                     14                     15
                      A                      A                      A
 Frequencies --    201.2133               211.8757               218.6679
 Red. masses --      3.5147                 2.5808                 1.1688
 Frc consts  --      0.0838                 0.0683                 0.0329
 IR Inten    --      0.9899                 1.9700                 1.9108

                     16                     17                     18
                      A                      A                      A
 Frequencies --    244.3965               255.5933               280.6141
 Red. masses --      3.6402                 1.5236                 4.4955
 Frc consts  --      0.1281                 0.0586                 0.2086
 IR Inten    --     23.7840                 3.3176                 8.2382

                     19                     20                     21
                      A                      A                      A
 Frequencies --    302.3403               313.1875               335.9979
 Red. masses --      2.7002                 4.3212                 3.9089
 Frc consts  --      0.1454                 0.2497                 0.2600
 IR Inten    --      8.8421                 9.6138                45.4631

                     22                     23                     24
                      A                      A                      A
 Frequencies --    345.9014               353.2668               378.2265
 Red. masses --      4.7540                 2.6723                 3.0623
 Frc consts  --      0.3351                 0.1965                 0.2581
 IR Inten    --     12.4522                 0.7496                 3.7639

                     25                     26                     27
                      A                      A                      A
 Frequencies --    381.0980               417.8847               425.7808
 Red. masses --      1.7125                 2.9834                 3.3942
 Frc consts  --      0.1465                 0.3070                 0.3625
 IR Inten    --     49.5866                 0.0728                43.3289

                     28                     29                     30
                      A                      A                      A
 Frequencies --    435.0643               470.2576               479.7540
 Red. masses --      2.3518                 3.1250                 5.3223
 Frc consts  --      0.2623                 0.4072                 0.7218
 IR Inten    --     62.1671                53.9873                44.9134

                     31                     32                     33
                      A                      A                      A
 Frequencies --    498.7388               514.6935               566.0755
 Red. masses --      3.7039                 3.5690                 5.3888
 Frc consts  --      0.5428                 0.5571                 1.0174
 IR Inten    --     36.1267                15.0090                19.7297

                     34                     35                     36
                      A                      A                      A
 Frequencies --    577.6431               596.7851               630.2724
 Red. masses --      6.8047                 6.3885                 3.6795
 Frc consts  --      1.3378                 1.3406                 0.8612
 IR Inten    --    285.5668                42.0091                38.2455

                     37                     38                     39
                      A                      A                      A
 Frequencies --    634.2289               712.6654               717.9917
 Red. masses --      6.3103                 3.1634                 1.9996
 Frc consts  --      1.4955                 0.9466                 0.6073
 IR Inten    --      0.4302                15.8674                19.5077

                     40                     41                     42
                      A                      A                      A
 Frequencies --    752.0731               770.4801               780.6448
 Red. masses --      5.3125                 1.8797                 1.3109
 Frc consts  --      1.7704                 0.6574                 0.4707
 IR Inten    --     81.6637                63.8410                 4.8150

                     43                     44                     45
                      A                      A                      A
 Frequencies --    817.2972               820.6116               841.6913
 Red. masses --      4.0220                 1.5261                 4.0621
 Frc consts  --      1.5829                 0.6055                 1.6955
 IR Inten    --      1.5861                 0.7713                14.5105

                     46                     47                     48
                      A                      A                      A
 Frequencies --    858.9759               866.6977               868.7745
 Red. masses --      3.1832                 1.2767                 3.3687
 Frc consts  --      1.3838                 0.5650                 1.4981
 IR Inten    --     55.1585                 1.7520                32.3596

                     49                     50                     51
                      A                      A                      A
 Frequencies --    935.6118               942.5555               959.9309
 Red. masses --      1.4652                 3.1259                 2.3979
 Frc consts  --      0.7557                 1.6362                 1.3019
 IR Inten    --      2.4906                83.7560                32.0337

                     52                     53                     54
                      A                      A                      A
 Frequencies --    978.6289              1004.9744              1010.2397
 Red. masses --      1.3559                 1.2551                 2.5141
 Frc consts  --      0.7651                 0.7469                 1.5117
 IR Inten    --      0.3623                 0.3669                32.0706

                     55                     56                     57
                      A                      A                      A
 Frequencies --   1016.4787              1021.8789              1051.4584
 Red. masses --      6.2240                 1.8738                 2.2102
 Frc consts  --      3.7889                 1.1528                 1.4397
 IR Inten    --      1.2343                75.8162                 3.5313

                     58                     59                     60
                      A                      A                      A
 Frequencies --   1055.7261              1064.5193              1065.6426
 Red. masses --      2.1047                 1.1841                 2.1920
 Frc consts  --      1.3821                 0.7906                 1.4666
 IR Inten    --     12.7904                23.2655                63.2491

                     61                     62                     63
                      A                      A                      A
 Frequencies --   1083.0839              1085.3342              1127.3366
 Red. masses --      1.5138                 3.1219                 1.5723
 Frc consts  --      1.0462                 2.1667                 1.1773
 IR Inten    --     54.5001               253.9846                 1.3355

                     64                     65                     66
                      A                      A                      A
 Frequencies --   1145.3900              1149.8584              1160.8258
 Red. masses --      3.2764                 2.3986                 2.2218
 Frc consts  --      2.5325                 1.8685                 1.7640
 IR Inten    --    174.0617               159.7412                34.2885

                     67                     68                     69
                      A                      A                      A
 Frequencies --   1171.1994              1182.1476              1203.9545
 Red. masses --      2.0377                 1.0953                 1.1429
 Frc consts  --      1.6468                 0.9018                 0.9761
 IR Inten    --     65.6130                 0.1090                 0.4507

                     70                     71                     72
                      A                      A                      A
 Frequencies --   1204.7934              1236.4365              1244.5239
 Red. masses --      1.3497                 2.6189                 1.9972
 Frc consts  --      1.1543                 2.3589                 1.8225
 IR Inten    --     13.5126                 1.8742                47.9896

                     73                     74                     75
                      A                      A                      A
 Frequencies --   1245.7308              1252.9070              1272.7542
 Red. masses --      1.4402                 1.7074                 1.8270
 Frc consts  --      1.3168                 1.5792                 1.7437
 IR Inten    --     13.4374                 6.8430               125.7978

                     76                     77                     78
                      A                      A                      A
 Frequencies --   1290.0173              1333.5447              1341.9743
 Red. masses --      3.4957                 1.5308                 1.6041
 Frc consts  --      3.4275                 1.6040                 1.7020
 IR Inten    --    271.6986                18.7210                60.9236

                     79                     80                     81
                      A                      A                      A
 Frequencies --   1356.9315              1362.4479              1372.6134
 Red. masses --      2.6261                 2.4047                 1.3130
 Frc consts  --      2.8489                 2.6300                 1.4575
 IR Inten    --    206.8257                 5.9141                 5.5601

                     82                     83                     84
                      A                      A                      A
 Frequencies --   1389.6075              1413.2212              1437.2723
 Red. masses --      1.4841                 1.4707                 1.1800
 Frc consts  --      1.6885                 1.7306                 1.4362
 IR Inten    --     78.2413                62.6816                34.6482

                     85                     86                     87
                      A                      A                      A
 Frequencies --   1448.1669              1464.7134              1468.4867
 Red. masses --      1.1849                 1.0976                 1.1648
 Frc consts  --      1.4641                 1.3874                 1.4799
 IR Inten    --     22.4601                46.0755                 2.9476

                     88                     89                     90
                      A                      A                      A
 Frequencies --   1483.7956              1496.9279              1500.4551
 Red. masses --      1.1136                 1.2180                 1.7458
 Frc consts  --      1.4445                 1.6080                 2.3157
 IR Inten    --     23.9795                 3.4961                 2.4550

                     91                     92                     93
                      A                      A                      A
 Frequencies --   1500.9984              1506.3606              1511.2799
 Red. masses --      1.0474                 1.0674                 1.1295
 Frc consts  --      1.3903                 1.4270                 1.5200
 IR Inten    --     33.2546                31.8531                73.5991

                     94                     95                     96
                      A                      A                      A
 Frequencies --   1513.3164              1519.6591              1524.3177
 Red. masses --      1.0539                 1.1346                 1.0472
 Frc consts  --      1.4221                 1.5437                 1.4336
 IR Inten    --      6.0017                18.2566                65.5682

                     97                     98                     99
                      A                      A                      A
 Frequencies --   1542.9417              1643.6400              1662.5841
 Red. masses --      2.2703                 5.5162                 5.7312
 Frc consts  --      3.1844                 8.7801                 9.3340
 IR Inten    --     18.0754                 1.7944                 7.9178

                    100                    101                    102
                      A                      A                      A
 Frequencies --   3063.5467              3083.3609              3111.5025
 Red. masses --      1.0615                 1.0591                 1.1021
 Frc consts  --      5.8698                 5.9325                 6.2866
 IR Inten    --     13.8564                48.3576                 2.2687

                    103                    104                    105
                      A                      A                      A
 Frequencies --   3129.7602              3130.6290              3131.9991
 Red. masses --      1.0291                 1.0299                 1.1052
 Frc consts  --      5.9390                 5.9470                 6.3873
 IR Inten    --      3.6055                 5.3844                47.0959

                    106                    107                    108
                      A                      A                      A
 Frequencies --   3153.2862              3161.5649              3190.0556
 Red. masses --      1.0579                 1.0613                 1.0863
 Frc consts  --      6.1978                 6.2503                 6.5134
 IR Inten    --      0.1630                 1.4225                11.2538

                    109                    110                    111
                      A                      A                      A
 Frequencies --   3194.7410              3203.5555              3210.4528
 Red. masses --      1.0871                 1.0908                 1.0938
 Frc consts  --      6.5369                 6.5958                 6.6424
 IR Inten    --     10.0505                19.0908                68.4875

                    112                    113                    114
                      A                      A                      A
 Frequencies --   3223.1289              3224.1873              3224.7778
 Red. masses --      1.0977                 1.1113                 1.1078
 Frc consts  --      6.7185                 6.8063                 6.7875
 IR Inten    --     32.9829                 0.5776                 1.3372

                    115                    116                    117
                      A                      A                      A
 Frequencies --   3228.1822              3238.2386              3239.6304
 Red. masses --      1.1086                 1.1101                 1.1093
 Frc consts  --      6.8069                 6.8584                 6.8597
 IR Inten    --      1.2529                 2.6757                 0.8750

                    118                    119                    120
                      A                      A                      A
 Frequencies --   3242.9366              3376.2599              3528.1837
 Red. masses --      1.1055                 1.0775                 1.0772
 Frc consts  --      6.8497                 7.2367                 7.9006
 IR Inten    --      2.9710               231.2781               250.7067

 - Thermochemistry -
 -------------------
 Temperature   298.150 Kelvin.  Pressure   1.00000 Atm.
 Atom     1 has atomic number 16 and mass  31.97207

 Molecular mass:   333.09428 amu.
 Principal axes and moments of inertia in atomic units:
                           1         2         3
     Eigenvalues --  4800.08307********************
           X            0.99988  -0.01511  -0.00176
           Y            0.01521   0.99081   0.13441
           Z           -0.00029  -0.13442   0.99092
 This molecule is an asymmetric top.
 Rotational symmetry number  1.
 Warning -- assumption of classical behavior for rotation
           may cause significant error
 Rotational temperatures (Kelvin)      0.01804     0.00687     0.00554
 Rotational constants (GHZ):           0.37598     0.14318     0.11548
 Zero-point vibrational energy     911100.9 (Joules/Mol)
                                  217.75833 (Kcal/Mol)
 Warning -- explicit consideration of  35 degrees of freedom as
           vibrations may cause significant error
 Vibrational temperatures:     27.45    46.21    67.14    80.89   102.95
          (Kelvin)            122.07   134.17   172.84   187.32   224.45
                              272.19   285.29   289.50   304.84   314.61
                              351.63   367.74   403.74   435.00   450.61
                              483.43   497.67   508.27   544.18   548.32
                              601.24   612.60   625.96   676.60   690.26
                              717.57   740.53   814.46   831.10   858.64
                              906.82   912.51  1025.37  1033.03  1082.07
                             1108.55  1123.17  1175.91  1180.68  1211.01
                             1235.87  1246.98  1249.97  1346.14  1356.13
                             1381.13  1408.03  1445.93  1453.51  1462.49
                             1470.26  1512.81  1518.95  1531.61  1533.22
                             1558.32  1561.55  1621.99  1647.96  1654.39
                             1670.17  1685.09  1700.85  1732.22  1733.43
                             1778.96  1790.59  1792.33  1802.65  1831.21
                             1856.05  1918.67  1930.80  1952.32  1960.26
                             1974.88  1999.34  2033.31  2067.91  2083.59
                             2107.40  2112.82  2134.85  2153.75  2158.82
                             2159.60  2167.32  2174.39  2177.32  2186.45
                             2193.15  2219.95  2364.83  2392.09  4407.76
                             4436.27  4476.76  4503.03  4504.28  4506.25
                             4536.88  4548.79  4589.78  4596.52  4609.20
                             4619.13  4637.36  4638.89  4639.74  4644.63
                             4659.10  4661.11  4665.86  4857.69  5076.27

 Zero-point correction=                           0.347020 (Hartree/Particle)
 Thermal correction to Energy=                    0.368686
 Thermal correction to Enthalpy=                  0.369630
 Thermal correction to Gibbs Free Energy=         0.295255
 Sum of electronic and zero-point Energies=          -1714.155359
 Sum of electronic and thermal Energies=             -1714.133693
 Sum of electronic and thermal Enthalpies=           -1714.132749
 Sum of electronic and thermal Free Energies=        -1714.207125

                     E (Thermal)             CV                S
                      KCal/Mol        Cal/Mol-Kelvin    Cal/Mol-Kelvin
 Total                  231.354             82.551            156.537
 Electronic               0.000              0.000              0.000
 Translational            0.889              2.981             43.305
 Rotational               0.889              2.981             35.202
 Vibrational            229.577             76.590             78.030
 Vibration     1          0.593              1.986              6.728
 Vibration     2          0.594              1.983              5.694
 Vibration     3          0.595              1.979              4.954
 Vibration     4          0.596              1.975              4.586
 Vibration     5          0.598              1.968              4.110
 Vibration     6          0.601              1.960              3.776
 Vibration     7          0.602              1.954              3.591
 Vibration     8          0.609              1.932              3.098
 Vibration     9          0.612              1.923              2.943
 Vibration    10          0.620              1.896              2.598
 Vibration    11          0.633              1.855              2.236
 Vibration    12          0.637              1.842              2.149
 Vibration    13          0.638              1.838              2.122
 Vibration    14          0.643              1.823              2.027
 Vibration    15          0.646              1.813              1.970
 Vibration    16          0.660              1.772              1.771
 Vibration    17          0.666              1.753              1.692
 Vibration    18          0.680              1.709              1.530
 Vibration    19          0.694              1.669              1.404
 Vibration    20          0.701              1.649              1.345
 Vibration    21          0.717              1.604              1.231
 Vibration    22          0.724              1.584              1.185
 Vibration    23          0.729              1.569              1.152
 Vibration    24          0.749              1.517              1.046
 Vibration    25          0.751              1.510              1.035
 Vibration    26          0.781              1.431              0.899
 Vibration    27          0.788              1.414              0.873
 Vibration    28          0.796              1.394              0.842
 Vibration    29          0.827              1.316              0.737
 Vibration    30          0.836              1.295              0.711
 Vibration    31          0.854              1.253              0.661
 Vibration    32          0.870              1.217              0.622
 Vibration    33          0.922              1.105              0.512
 Vibration    34          0.934              1.080              0.490
 Vibration    35          0.955              1.039              0.455

 Optimization completed.
    -- Stationary point found.
 Normal termination of Gaussian 16 at Thu Sep 24 03:04:01 2020.

 ----------------------------------------------------------------------
 #p b3lyp/6-31G(d) scrf=(iefpcm,read,solvent=water) geom=allcheck guess
 =read
 ----------------------------------------------------------------------

 Structure from the checkpoint file:  "SM40_38.b.15.pdb.xyz.mst.b.w.chk"
 --------------------
 SM40_38.b.15.pdb.xyz
 --------------------
 Charge =  1 Multiplicity = 1

 SCF Done:  E(RB3LYP) =  -1714.50210610     A.U. after    7 cycles
 Normal termination of Gaussian 16 at Thu Sep 24 03:04:59 2020.

 -----------------------------
 #p B3LYP/6-31G* geom=allcheck
 -----------------------------

 Structure from the checkpoint file:  "SM40_38.b.15.pdb.xyz.mst.b.w.chk"
 --------------------
 SM40_38.b.15.pdb.xyz
 --------------------
 Charge =  1 Multiplicity = 1

 SCF Done:  E(RB3LYP) =  -1714.37835478     A.U. after   16 cycles
 Normal termination of Gaussian 16 at Thu Sep 24 03:06:12 2020.
 Gaussian 16:  ES64L-G16RevB.01 20-Dec-2017

 ----------------------------------------------------------------------
 #p mp2/aug-cc-pVDZ scf=(MaxCycle=2000,NoVarAcc,NoIncFock) maxdisk=120G
 B geom=allcheck
 ----------------------------------------------------------------------

 Structure from the checkpoint file:  "SM40_38.b.15.pdb.xyz.mst.b.w.chk"
 --------------------
 SM40_38.b.15.pdb.xyz
 --------------------
 Charge =  1 Multiplicity = 1

                         Standard orientation:
 ---------------------------------------------------------------------
 Center     Atomic      Atomic             Coordinates (Angstroms)
 Number     Number       Type             X           Y           Z
 ---------------------------------------------------------------------
      1         16           0       -2.800894   -0.727859    0.662021
      2          7           0       -1.185603   -0.738553    0.635191
      3          6           0       -0.262098    0.360307    0.244342
      4          6           0       -0.339085    1.618029    1.179510
      5         16           0       -0.550889    2.705364   -0.273091
      6          6           0       -0.641384    1.072651   -1.096248
      7          8           0       -1.830980    3.434204   -0.285048
      8          8           0        0.680747    3.443281   -0.611585
      9          6           0        1.128519   -0.313416    0.225668
     10          6           0        2.317666    0.590040   -0.146115
     11          6           0        3.619398   -0.180503   -0.091355
     12          6           0        4.092623   -0.870092   -1.215310
     13          6           0        5.281392   -1.599576   -1.158164
     14          6           0        6.016109   -1.649690    0.028279
     15          6           0        5.555176   -0.965002    1.154529
     16          6           0        4.366008   -0.236841    1.092708
     17          8           0       -3.321765    0.573820    0.281612
     18          8           0       -3.309172   -1.515292    1.770931
     19          1           0       -0.797180   -1.455569    1.248516
     20          1           0        0.561838    1.837892    1.749433
     21          1           0       -1.219066    1.655160    1.819224
     22          1           0        0.064998    0.950580   -1.916559
     23          1           0       -1.661543    0.908123   -1.431125
     24          1           0        1.079183   -1.153245   -0.473887
     25          1           0        1.310637   -0.731970    1.221767
     26          1           0        2.371059    1.439412    0.540925
     27          1           0        2.179187    0.999041   -1.150796
     28          1           0        3.528397   -0.829780   -2.142884
     29          1           0        5.635036   -2.124024   -2.040099
     30          1           0        6.942150   -2.213406    0.073461
     31          1           0        6.122900   -0.993133    2.079407
     32          1           0        4.014986    0.299366    1.969882
     33          7           0       -3.248500   -1.792939   -0.814174
     34          6           0       -4.736918   -1.800395   -0.991215
     35          1           0       -5.079587   -0.771399   -1.069334
     36          1           0       -4.953941   -2.344187   -1.908912
     37          1           0       -5.184715   -2.301157   -0.135567
     38          6           0       -2.661488   -3.164271   -0.713522
     39          1           0       -3.114746   -3.677492    0.131327
     40          1           0       -2.888819   -3.683879   -1.642986
     41          1           0       -1.584717   -3.074711   -0.590345
     42          1           0       -2.824946   -1.310795   -1.627387
 ---------------------------------------------------------------------

 SCF Done:  E(RHF) =  -1707.57958780     A.U. after   17 cycles
 E2 =    -0.3324945577D+01 EUMP2 =    -0.17109045333735D+04

 The electronic state is 1-A.
 Alpha  occ. eigenvalues --  -92.45128 -92.31064 -20.76722 -20.76609 -20.66360
 Alpha  occ. eigenvalues --  -20.66331 -15.89516 -15.80848 -11.48281 -11.47532
 Alpha  occ. eigenvalues --  -11.46670 -11.41948 -11.41090 -11.38778 -11.35463
 Alpha  occ. eigenvalues --  -11.34120 -11.32885 -11.32787 -11.32659 -11.32590
 Alpha  occ. eigenvalues --  -11.32239  -9.41531  -9.28249  -7.10063  -7.10022
 Alpha  occ. eigenvalues --   -7.09991  -6.96734  -6.96652  -6.96603  -1.67557
 Alpha  occ. eigenvalues --   -1.55174  -1.54653  -1.49426  -1.44375  -1.43266
 Alpha  occ. eigenvalues --   -1.28810  -1.24701  -1.18591  -1.18400  -1.13965
 Alpha  occ. eigenvalues --   -1.11210  -1.10725  -1.10184  -1.06652  -1.01647
 Alpha  occ. eigenvalues --   -0.97530  -0.95594  -0.91655  -0.91413  -0.90720
 Alpha  occ. eigenvalues --   -0.89614  -0.88631  -0.85965  -0.83560  -0.82029
 Alpha  occ. eigenvalues --   -0.80801  -0.79595  -0.78833  -0.78026  -0.76811
 Alpha  occ. eigenvalues --   -0.76370  -0.75313  -0.75039  -0.74159  -0.73200
 Alpha  occ. eigenvalues --   -0.72862  -0.72440  -0.71628  -0.71030  -0.69367
 Alpha  occ. eigenvalues --   -0.68283  -0.67919  -0.67120  -0.66854  -0.66690
 Alpha  occ. eigenvalues --   -0.65474  -0.63869  -0.62491  -0.60719  -0.58910
 Alpha  occ. eigenvalues --   -0.58143  -0.57858  -0.57540  -0.57471  -0.56439
 Alpha  occ. eigenvalues --   -0.53583  -0.42172  -0.41663
 Alpha virt. eigenvalues --   -0.09413  -0.07177  -0.06468  -0.05810  -0.04257
 Alpha virt. eigenvalues --   -0.03988  -0.03865  -0.03080  -0.03020  -0.02773
 Alpha virt. eigenvalues --   -0.02277  -0.01826  -0.01332  -0.00768  -0.00544

 Mulliken charges:
               1
     1  S    2.892222
     2  N   -0.832876
     3  C    0.860241
     4  C    0.200654
     5  S    3.013273
     6  C    0.150122
     7  O   -1.232132
     8  O   -1.233921
     9  C    0.272120
    10  C    0.833261
    11  C    1.219875
    12  C    0.506208
    13  C    0.004295
    14  C    0.666367
    15  C    0.014726
    16  C    0.483013
    17  O   -1.092351
    18  O   -1.073765
    19  H   -0.063104
    20  H   -0.282604
    21  H   -0.357206
    22  H   -0.313894
    23  H   -0.370522
    24  H   -0.250472
    25  H   -0.215237
    26  H   -0.293841
    27  H   -0.295287
    28  H   -0.685471
    29  H   -0.459072
    30  H   -0.422603
    31  H   -0.455488
    32  H   -0.683718
    33  N   -0.778414
    34  C    0.843998
    35  H   -0.119184
    36  H   -0.107386
    37  H   -0.048374
    38  C    0.862718
    39  H   -0.031270
    40  H   -0.097126
    41  H   -0.222758
    42  H    0.194985
 Sum of Mulliken charges =   1.00000

 Dipole moment (field-independent basis, Debye):
    X=             -8.1310    Y=            -13.4334    Z=             -2.7867  Tot=             15.9479
 Quadrupole moment (field-independent basis, Debye-Ang):
   XX=            -86.3982   YY=           -139.3912   ZZ=           -122.8923
   XY=             26.7620   XZ=             21.0533   YZ=             16.8012

 Normal termination of Gaussian 16 at Thu Sep 24 04:20:14 2020.
