 Gaussian 16, Revision B.01,

 ----------------------------------------------------------------------
 #p b3lyp/6-31G(d) opt freq NoSymm scf=(MaxCycle=2000,NoVarAcc,NoIncFoc
 k) scrf=(iefpcm,read,solvent=water)
 ----------------------------------------------------------------------

 ----------------
 SM40.n.4.pdb.xyz
 ----------------
 Symbolic Z-matrix:
 Charge =  0 Multiplicity = 1

 SCF Done:  E(RB3LYP) =  -1714.06772006     A.U. after   13 cycles
 SCF Done:  E(RB3LYP) =  -1714.06745933     A.U. after   10 cycles
 SCF Done:  E(RB3LYP) =  -1714.06782398     A.U. after   10 cycles
 SCF Done:  E(RB3LYP) =  -1714.06779288     A.U. after   10 cycles
 SCF Done:  E(RB3LYP) =  -1714.06776273     A.U. after    9 cycles
 SCF Done:  E(RB3LYP) =  -1714.06782119     A.U. after    9 cycles
 SCF Done:  E(RB3LYP) =  -1714.06782391     A.U. after    8 cycles
 SCF Done:  E(RB3LYP) =  -1714.06778186     A.U. after   10 cycles
 SCF Done:  E(RB3LYP) =  -1714.06779010     A.U. after    8 cycles
 SCF Done:  E(RB3LYP) =  -1714.06782685     A.U. after    9 cycles
 SCF Done:  E(RB3LYP) =  -1714.06782737     A.U. after    8 cycles
 SCF Done:  E(RB3LYP) =  -1714.06778958     A.U. after   10 cycles
 SCF Done:  E(RB3LYP) =  -1714.06779209     A.U. after    7 cycles
 SCF Done:  E(RB3LYP) =  -1714.06782589     A.U. after    9 cycles
 SCF Done:  E(RB3LYP) =  -1714.06782731     A.U. after    8 cycles
 SCF Done:  E(RB3LYP) =  -1714.06779214     A.U. after    9 cycles
 Optimization completed.
    -- Stationary point found.
 Normal termination of Gaussian 16 at Tue Sep 22 06:54:20 2020.

 --------------------------------------------------------------------
 #P Geom=AllCheck Guess=TCheck SCRF=Check GenChk RB3LYP/6-31G(d) Freq
 --------------------------------------------------------------------

 Structure from the checkpoint file:  "SM40.n.4.pdb.xyz.mst.n.w.chk"
 ----------------
 SM40.n.4.pdb.xyz
 ----------------
 Charge =  0 Multiplicity = 1

 SCF Done:  E(RB3LYP) =  -1714.06779214     A.U. after    1 cycles

  Exact polarizability: 278.804  18.025 251.397 -25.466  22.082 218.455
 Approx polarizability: 293.659  24.550 287.368 -22.671  27.473 260.137

                      1                      2                      3
                      A                      A                      A
 Frequencies --     14.0084                25.9088                30.2620
 Red. masses --      4.9509                 4.1772                 4.9048
 Frc consts  --      0.0006                 0.0017                 0.0026
 IR Inten    --      0.1383                 0.7952                 5.0701

                      4                      5                      6
                      A                      A                      A
 Frequencies --     48.3801                58.0889                70.9655
 Red. masses --      6.0259                 5.0306                 3.8030
 Frc consts  --      0.0083                 0.0100                 0.0113
 IR Inten    --      3.8594                 9.3396                 0.9995

                      7                      8                      9
                      A                      A                      A
 Frequencies --     82.7216               116.4267               143.6894
 Red. masses --      3.6368                 5.0364                 8.7313
 Frc consts  --      0.0147                 0.0402                 0.1062
 IR Inten    --      3.8522                 5.2750                 1.4217

                     10                     11                     12
                      A                      A                      A
 Frequencies --    154.8239               188.8196               193.3183
 Red. masses --      4.5678                 1.9031                 2.0037
 Frc consts  --      0.0645                 0.0400                 0.0441
 IR Inten    --      5.4199                 0.6589                 2.5013

                     13                     14                     15
                      A                      A                      A
 Frequencies --    208.6376               220.7575               235.0969
 Red. masses --      1.2900                 4.8657                 2.5567
 Frc consts  --      0.0331                 0.1397                 0.0833
 IR Inten    --      3.2675                10.4479                 9.5974

                     16                     17                     18
                      A                      A                      A
 Frequencies --    250.6840               282.7572               308.2971
 Red. masses --      5.9167                 3.5039                 3.1459
 Frc consts  --      0.2191                 0.1651                 0.1762
 IR Inten    --      4.0806                16.5164                 5.3061

                     19                     20                     21
                      A                      A                      A
 Frequencies --    320.1248               344.5989               357.2120
 Red. masses --      2.8932                 2.6652                 2.7816
 Frc consts  --      0.1747                 0.1865                 0.2091
 IR Inten    --      3.2531                 2.4916                11.8711

                     22                     23                     24
                      A                      A                      A
 Frequencies --    359.7480               370.7500               401.1036
 Red. masses --      2.1688                 3.8067                 5.6004
 Frc consts  --      0.1654                 0.3083                 0.5309
 IR Inten    --      2.4319                 3.5229                40.5279

                     25                     26                     27
                      A                      A                      A
 Frequencies --    418.0573               436.9929               449.9393
 Red. masses --      2.9894                 3.6389                 3.9989
 Frc consts  --      0.3078                 0.4094                 0.4770
 IR Inten    --      0.9748                29.0485                10.2294

                     28                     29                     30
                      A                      A                      A
 Frequencies --    461.9511               489.1487               499.3533
 Red. masses --      4.8429                 2.4751                 4.4393
 Frc consts  --      0.6089                 0.3489                 0.6522
 IR Inten    --     30.7731                38.3241                 1.4172

                     31                     32                     33
                      A                      A                      A
 Frequencies --    530.7951               542.8566               569.3461
 Red. masses --      4.1547                 2.8191                 4.7242
 Frc consts  --      0.6897                 0.4895                 0.9023
 IR Inten    --     33.1164               105.3830                17.9210

                     34                     35                     36
                      A                      A                      A
 Frequencies --    579.3814               606.9036               634.2217
 Red. masses --      3.6645                 3.2857                 6.3581
 Frc consts  --      0.7248                 0.7131                 1.5068
 IR Inten    --     76.0812               128.6972                 0.6378

                     37                     38                     39
                      A                      A                      A
 Frequencies --    662.1031               688.9607               716.6826
 Red. masses --      5.6147                 3.2693                 2.0652
 Frc consts  --      1.4502                 0.9143                 0.6250
 IR Inten    --    133.7588                 5.1075                33.2253

                     40                     41                     42
                      A                      A                      A
 Frequencies --    761.6479               764.4176               779.3143
 Red. masses --      1.9091                 4.1666                 3.0305
 Frc consts  --      0.6525                 1.4345                 1.0844
 IR Inten    --     62.3079               105.0489                 8.8887

                     43                     44                     45
                      A                      A                      A
 Frequencies --    809.7839               831.6673               858.4142
 Red. masses --      1.7517                 3.8462                 3.1536
 Frc consts  --      0.6768                 1.5674                 1.3692
 IR Inten    --     21.8037                23.2369                77.8952

                     46                     47                     48
                      A                      A                      A
 Frequencies --    865.7276               897.0945               924.0104
 Red. masses --      1.2516                 1.7136                 2.3328
 Frc consts  --      0.5527                 0.8125                 1.1735
 IR Inten    --      0.2470                12.6050               167.2113

                     49                     50                     51
                      A                      A                      A
 Frequencies --    934.7526               937.8566               949.0196
 Red. masses --      1.9037                 3.2385                 1.8478
 Frc consts  --      0.9800                 1.6783                 0.9805
 IR Inten    --      6.5028               167.6627                23.2679

                     52                     53                     54
                      A                      A                      A
 Frequencies --    978.2951              1006.9528              1016.1712
 Red. masses --      1.3586                 1.2574                 6.1377
 Frc consts  --      0.7661                 0.7512                 3.7341
 IR Inten    --      0.2519                 0.6939                 0.4525

                     55                     56                     57
                      A                      A                      A
 Frequencies --   1020.3642              1033.4751              1056.2269
 Red. masses --      1.9272                 2.6033                 2.1057
 Frc consts  --      1.1822                 1.6382                 1.3841
 IR Inten    --     45.1423                22.3965                 7.1688

                     58                     59                     60
                      A                      A                      A
 Frequencies --   1063.3819              1068.4396              1084.6421
 Red. masses --      1.6116                 1.5949                 3.7618
 Frc consts  --      1.0737                 1.0727                 2.6075
 IR Inten    --     23.0860                59.4204               369.1336

                     61                     62                     63
                      A                      A                      A
 Frequencies --   1089.3580              1098.2013              1114.4482
 Red. masses --      1.4525                 7.9637                 1.7016
 Frc consts  --      1.0155                 5.6589                 1.2451
 IR Inten    --     11.9990               143.7551                 8.0807

                     64                     65                     66
                      A                      A                      A
 Frequencies --   1129.7146              1149.1831              1176.3997
 Red. masses --      1.2275                 3.6974                 1.3954
 Frc consts  --      0.9230                 2.8769                 1.1378
 IR Inten    --      2.7087                81.8085                 4.7332

                     67                     68                     69
                      A                      A                      A
 Frequencies --   1187.5137              1196.1253              1203.3438
 Red. masses --      1.1122                 1.2710                 1.1644
 Frc consts  --      0.9241                 1.0714                 0.9934
 IR Inten    --      0.2801                 3.1006                 2.2838

                     70                     71                     72
                      A                      A                      A
 Frequencies --   1214.0511              1223.1270              1231.4179
 Red. masses --      3.0938                 1.5449                 2.5266
 Frc consts  --      2.6867                 1.3618                 2.2574
 IR Inten    --     49.0599                58.1604                10.8027

                     73                     74                     75
                      A                      A                      A
 Frequencies --   1241.7967              1264.5508              1272.6420
 Red. masses --      2.2095                 2.3675                 2.4211
 Frc consts  --      2.0075                 2.2305                 2.3104
 IR Inten    --    145.1451               296.3855                12.7518

                     76                     77                     78
                      A                      A                      A
 Frequencies --   1274.1950              1280.6215              1304.6984
 Red. masses --      2.7650                 2.9746                 1.4699
 Frc consts  --      2.6449                 2.8743                 1.4742
 IR Inten    --    101.2898               286.7940                48.8105

                     79                     80                     81
                      A                      A                      A
 Frequencies --   1349.1010              1363.2719              1389.1742
 Red. masses --      2.6386                 1.7468                 1.4289
 Frc consts  --      2.8295                 1.9127                 1.6246
 IR Inten    --      9.1656                 0.4591                 8.9333

                     82                     83                     84
                      A                      A                      A
 Frequencies --   1398.9380              1446.7192              1452.7622
 Red. masses --      1.4375                 1.1394                 1.1130
 Frc consts  --      1.6575                 1.4050                 1.3840
 IR Inten    --      9.8639                 1.8880                21.3892

                     85                     86                     87
                      A                      A                      A
 Frequencies --   1456.9053              1462.5245              1476.0758
 Red. masses --      1.1464                 1.1409                 1.1659
 Frc consts  --      1.4337                 1.4378                 1.4966
 IR Inten    --     49.4999                 6.9280                31.5637

                     88                     89                     90
                      A                      A                      A
 Frequencies --   1497.2745              1499.0576              1504.3031
 Red. masses --      1.0450                 1.9073                 1.1667
 Frc consts  --      1.3802                 2.5253                 1.5556
 IR Inten    --     12.5328                11.5128                 4.6505

                     91                     92                     93
                      A                      A                      A
 Frequencies --   1508.7250              1512.7212              1519.1278
 Red. masses --      1.0460                 1.0660                 1.0893
 Frc consts  --      1.4028                 1.4372                 1.4811
 IR Inten    --     12.8857                15.6066                15.1983

                     94                     95                     96
                      A                      A                      A
 Frequencies --   1526.7703              1541.6338              1641.7483
 Red. masses --      1.0464                 2.2274                 5.4711
 Frc consts  --      1.4372                 3.1190                 8.6884
 IR Inten    --     16.0866                17.1058                 1.6481

                     97                     98                     99
                      A                      A                      A
 Frequencies --   1662.0565              3054.1002              3057.4289
 Red. masses --      5.6961                 1.0461                 1.0457
 Frc consts  --      9.2709                 5.7487                 5.7592
 IR Inten    --      8.8800                61.0140                84.3737

                    100                    101                    102
                      A                      A                      A
 Frequencies --   3059.2272              3075.4649              3103.8690
 Red. masses --      1.0655                 1.0668                 1.0959
 Frc consts  --      5.8753                 5.9449                 6.2207
 IR Inten    --     40.8659                15.6424                56.0326

                    103                    104                    105
                      A                      A                      A
 Frequencies --   3137.6256              3141.2997              3144.4669
 Red. masses --      1.0981                 1.0574                 1.0917
 Frc consts  --      6.3694                 6.1477                 6.3597
 IR Inten    --     13.2828                18.5003                37.8569

                    106                    107                    108
                      A                      A                      A
 Frequencies --   3147.1806              3147.2729              3189.4099
 Red. masses --      1.0912                 1.0601                 1.0880
 Frc consts  --      6.3677                 6.1870                 6.5207
 IR Inten    --     10.7903                16.1895                19.7838

                    109                    110                    111
                      A                      A                      A
 Frequencies --   3195.3175              3200.3183              3204.7812
 Red. masses --      1.0868                 1.1024                 1.1019
 Frc consts  --      6.5375                 6.6521                 6.6681
 IR Inten    --     10.4247                 8.6261                 7.0130

                    112                    113                    114
                      A                      A                      A
 Frequencies --   3206.8617              3214.6829              3217.0992
 Red. masses --      1.0893                 1.0936                 1.1115
 Frc consts  --      6.6005                 6.6585                 6.7778
 IR Inten    --     11.3921                64.9298                12.5385

                    115                    116                    117
                      A                      A                      A
 Frequencies --   3222.6971              3226.8548              3497.4740
 Red. masses --      1.1117                 1.0977                 1.0761
 Frc consts  --      6.8025                 6.7342                 7.7553
 IR Inten    --     18.3391                30.7477               138.5917

 - Thermochemistry -
 -------------------
 Temperature   298.150 Kelvin.  Pressure   1.00000 Atm.
 Atom     1 has atomic number  8 and mass  15.99491

 Molecular mass:   332.08645 amu.
 Principal axes and moments of inertia in atomic units:
                           1         2         3
     Eigenvalues --  3696.32972********************
           X            0.99998  -0.00604  -0.00110
           Y            0.00600   0.99948  -0.03165
           Z            0.00129   0.03165   0.99950
 This molecule is an asymmetric top.
 Rotational symmetry number  1.
 Warning -- assumption of classical behavior for rotation
           may cause significant error
 Rotational temperatures (Kelvin)      0.02343     0.00770     0.00651
 Rotational constants (GHZ):           0.48825     0.16037     0.13554
 Zero-point vibrational energy     873389.0 (Joules/Mol)
                                  208.74498 (Kcal/Mol)
 Warning -- explicit consideration of  35 degrees of freedom as
           vibrations may cause significant error
 Vibrational temperatures:     20.15    37.28    43.54    69.61    83.58
          (Kelvin)            102.10   119.02   167.51   206.74   222.76
                              271.67   278.14   300.18   317.62   338.25
                              360.68   406.82   443.57   460.59   495.80
                              513.95   517.60   533.43   577.10   601.49
                              628.74   647.36   664.64   703.78   718.46
                              763.70   781.05   819.16   833.60   873.20
                              912.50   952.62   991.26  1031.15  1095.84
                             1099.83  1121.26  1165.10  1196.58  1235.07
                             1245.59  1290.72  1329.44  1344.90  1349.37
                             1365.43  1407.55  1448.78  1462.04  1468.08
                             1486.94  1519.67  1529.97  1537.25  1560.56
                             1567.34  1580.07  1603.44  1625.41  1653.42
                             1692.58  1708.57  1720.96  1731.34  1746.75
                             1759.81  1771.74  1786.67  1819.41  1831.05
                             1833.28  1842.53  1877.17  1941.06  1961.44
                             1998.71  2012.76  2081.51  2090.20  2096.16
                             2104.25  2123.74  2154.24  2156.81  2164.36
                             2170.72  2176.47  2185.69  2196.68  2218.07
                             2362.11  2391.33  4394.17  4398.96  4401.55
                             4424.91  4465.78  4514.34  4519.63  4524.19
                             4528.09  4528.22  4588.85  4597.35  4604.54
                             4610.97  4613.96  4625.21  4628.69  4636.74
                             4642.72  5032.08

 Zero-point correction=                           0.332656 (Hartree/Particle)
 Thermal correction to Energy=                    0.353977
 Thermal correction to Enthalpy=                  0.354921
 Thermal correction to Gibbs Free Energy=         0.280250
 Sum of electronic and zero-point Energies=          -1713.735136
 Sum of electronic and thermal Energies=             -1713.713815
 Sum of electronic and thermal Enthalpies=           -1713.712871
 Sum of electronic and thermal Free Energies=        -1713.787542

                     E (Thermal)             CV                S
                      KCal/Mol        Cal/Mol-Kelvin    Cal/Mol-Kelvin
 Total                  222.124             81.320            157.158
 Electronic               0.000              0.000              0.000
 Translational            0.889              2.981             43.296
 Rotational               0.889              2.981             34.670
 Vibrational            220.346             75.358             79.192
 Vibration     1          0.593              1.986              7.341
 Vibration     2          0.593              1.985              6.120
 Vibration     3          0.594              1.984              5.812
 Vibration     4          0.595              1.978              4.883
 Vibration     5          0.596              1.974              4.521
 Vibration     6          0.598              1.968              4.126
 Vibration     7          0.600              1.961              3.825
 Vibration     8          0.608              1.936              3.159
 Vibration     9          0.616              1.909              2.754
 Vibration    10          0.620              1.897              2.612
 Vibration    11          0.633              1.855              2.239
 Vibration    12          0.635              1.849              2.196
 Vibration    13          0.642              1.828              2.056
 Vibration    14          0.647              1.809              1.953
 Vibration    15          0.655              1.787              1.840
 Vibration    16          0.663              1.762              1.726
 Vibration    17          0.682              1.706              1.517
 Vibration    18          0.698              1.658              1.371
 Vibration    19          0.706              1.635              1.309
 Vibration    20          0.723              1.586              1.191
 Vibration    21          0.732              1.560              1.134
 Vibration    22          0.734              1.555              1.123
 Vibration    23          0.743              1.532              1.077
 Vibration    24          0.767              1.468              0.959
 Vibration    25          0.781              1.431              0.899
 Vibration    26          0.797              1.390              0.836
 Vibration    27          0.809              1.361              0.796
 Vibration    28          0.820              1.334              0.760
 Vibration    29          0.845              1.274              0.686
 Vibration    30          0.855              1.251              0.660
 Vibration    31          0.886              1.182              0.585
 Vibration    32          0.898              1.155              0.559
 Vibration    33          0.925              1.098              0.505
 Vibration    34          0.936              1.076              0.487
 Vibration    35          0.966              1.017              0.438

                           ! Non-Optimized Parameters !
 Normal termination of Gaussian 16 at Tue Sep 22 07:12:02 2020.

 ----------------------------------------------------------------------
 #p b3lyp/6-31G(d) scrf=(iefpcm,read,solvent=water) geom=allcheck guess
 =read
 ----------------------------------------------------------------------

 Structure from the checkpoint file:  "SM40.n.4.pdb.xyz.mst.n.w.chk"
 ----------------
 SM40.n.4.pdb.xyz
 ----------------
 Charge =  0 Multiplicity = 1

 SCF Done:  E(RB3LYP) =  -1714.06775565     A.U. after    6 cycles
 Normal termination of Gaussian 16 at Tue Sep 22 07:12:47 2020.

 -----------------------------
 #p B3LYP/6-31G* geom=allcheck
 -----------------------------

 Structure from the checkpoint file:  "SM40.n.4.pdb.xyz.mst.n.w.chk"
 ----------------
 SM40.n.4.pdb.xyz
 ----------------
 Charge =  0 Multiplicity = 1

 SCF Done:  E(RB3LYP) =  -1714.04045063     A.U. after   15 cycles
 Normal termination of Gaussian 16 at Tue Sep 22 07:13:49 2020.
 Gaussian 16:  ES64L-G16RevB.01 20-Dec-2017

 ----------------------------------------------------------------------
 #p mp2/aug-cc-pVDZ scf=(MaxCycle=2000,NoVarAcc,NoIncFock) maxdisk=120G
 B geom=allcheck
 ----------------------------------------------------------------------

 Structure from the checkpoint file:  "SM40.n.4.pdb.xyz.mst.n.w.chk"
 ----------------
 SM40.n.4.pdb.xyz
 ----------------
 Charge =  0 Multiplicity = 1

                         Standard orientation:
 ---------------------------------------------------------------------
 Center     Atomic      Atomic             Coordinates (Angstroms)
 Number     Number       Type             X           Y           Z
 ---------------------------------------------------------------------
      1          8           0       -3.257707   -2.064072   -1.260286
      2         16           0       -2.688581   -1.245326   -0.177101
      3          7           0       -1.296608   -0.581093   -0.829025
      4          6           0       -0.126932   -0.187424   -0.003017
      5          6           0       -0.549069    0.889492    1.050980
      6         16           0        0.086738    2.211861   -0.036079
      7          6           0        0.740508    0.750986   -0.907843
      8          8           0       -0.989775    2.888794   -0.789294
      9          8           0        1.130006    3.050760    0.587162
     10          6           0        0.605642   -1.421165    0.564346
     11          6           0        1.883898   -1.182139    1.393476
     12          6           0        3.146853   -0.886836    0.608821
     13          6           0        3.876503    0.287149    0.836183
     14          6           0        5.055590    0.548962    0.134037
     15          6           0        5.525598   -0.365376   -0.809308
     16          6           0        4.808267   -1.541543   -1.044528
     17          6           0        3.631925   -1.798169   -0.340884
     18          7           0       -3.584112    0.146645    0.129542
     19          6           0       -3.977613    0.891953   -1.077024
     20          6           0       -4.692598   -0.052416    1.080991
     21          8           0       -2.467998   -1.869478    1.134767
     22          1           0       -1.025109   -1.143696   -1.638795
     23          1           0        0.036911    0.852756    1.967772
     24          1           0       -1.615654    0.972051    1.256251
     25          1           0        1.809485    0.663710   -0.722896
     26          1           0        0.517989    0.730786   -1.973022
     27          1           0        0.842302   -2.081422   -0.276805
     28          1           0       -0.118950   -1.953181    1.184374
     29          1           0        2.045592   -2.094502    1.979223
     30          1           0        1.722711   -0.386051    2.127554
     31          1           0        3.511358    1.003272    1.566569
     32          1           0        5.603799    1.465888    0.325347
     33          1           0        6.441148   -0.165451   -1.356153
     34          1           0        5.166908   -2.260194   -1.773707
     35          1           0        3.083210   -2.717099   -0.528845
     36          1           0       -3.101653    1.054140   -1.701889
     37          1           0       -4.359915    1.858996   -0.747855
     38          1           0       -4.755608    0.373530   -1.649245
     39          1           0       -4.322984   -0.566775    1.965190
     40          1           0       -5.524272   -0.617510    0.642962
     41          1           0       -5.050393    0.938452    1.365043
 ---------------------------------------------------------------------

 SCF Done:  E(RHF) =  -1707.24993992     A.U. after   16 cycles
 E2 =    -0.3325290497D+01 EUMP2 =    -0.17105752304147D+04

 The electronic state is 1-A.
 Alpha  occ. eigenvalues --  -92.25455 -92.20080 -20.57435 -20.57132 -20.56166
 Alpha  occ. eigenvalues --  -20.56040 -15.63295 -15.62226 -11.34488 -11.29510
 Alpha  occ. eigenvalues --  -11.29461 -11.28245 -11.27561 -11.26325 -11.26177
 Alpha  occ. eigenvalues --  -11.26097 -11.25646 -11.25446 -11.25321 -11.25179
 Alpha  occ. eigenvalues --  -11.25050  -9.21954  -9.17345  -6.90509  -6.90459
 Alpha  occ. eigenvalues --   -6.90403  -6.85836  -6.85740  -6.85670  -1.48041
 Alpha  occ. eigenvalues --   -1.44239  -1.35158  -1.32991  -1.27768  -1.25584
 Alpha  occ. eigenvalues --   -1.17243  -1.14687  -1.08534  -1.02868  -1.01926
 Alpha  occ. eigenvalues --   -0.99111  -0.98420  -0.96153  -0.92322  -0.86180
 Alpha  occ. eigenvalues --   -0.84115  -0.82115  -0.80816  -0.78594  -0.73951
 Alpha  occ. eigenvalues --   -0.72598  -0.71179  -0.70873  -0.69233  -0.67420
 Alpha  occ. eigenvalues --   -0.66875  -0.65254  -0.64901  -0.64255  -0.63546
 Alpha  occ. eigenvalues --   -0.62447  -0.62234  -0.60863  -0.60115  -0.59703
 Alpha  occ. eigenvalues --   -0.59230  -0.58456  -0.57944  -0.57066  -0.56434
 Alpha  occ. eigenvalues --   -0.54390  -0.53622  -0.52830  -0.51762  -0.50945
 Alpha  occ. eigenvalues --   -0.50600  -0.49755  -0.49627  -0.48997  -0.48636
 Alpha  occ. eigenvalues --   -0.48167  -0.47767  -0.46578  -0.43580  -0.43040
 Alpha  occ. eigenvalues --   -0.41306  -0.34956  -0.34025
 Alpha virt. eigenvalues --    0.02654   0.03357   0.03698   0.03792   0.04433
 Alpha virt. eigenvalues --    0.04926   0.05374   0.05402   0.05839   0.06228
 Alpha virt. eigenvalues --    0.06918   0.07418   0.07521   0.07979   0.08491

 Mulliken charges:
               1
     1  O   -1.183128
     2  S    3.277420
     3  N   -1.270345
     4  C    0.151236
     5  C    0.511077
     6  S    2.882150
     7  C    0.474950
     8  O   -1.280234
     9  O   -1.261506
    10  C    0.925045
    11  C    0.063996
    12  C    0.882496
    13  C    0.764457
    14  C    0.051761
    15  C    0.773730
    16  C    0.042105
    17  C    0.514232
    18  N   -1.170987
    19  C    0.813282
    20  C    0.826509
    21  O   -1.247648
    22  H   -0.060061
    23  H   -0.393777
    24  H   -0.369132
    25  H   -0.193701
    26  H   -0.408567
    27  H   -0.078475
    28  H   -0.034933
    29  H   -0.131630
    30  H   -0.261415
    31  H   -0.747563
    32  H   -0.467653
    33  H   -0.447610
    34  H   -0.486025
    35  H   -0.726029
    36  H   -0.154678
    37  H   -0.161470
    38  H   -0.039225
    39  H   -0.165593
    40  H   -0.062272
    41  H   -0.150788
 Sum of Mulliken charges =  -0.00000

 Dipole moment (field-independent basis, Debye):
    X=              1.1437    Y=             -2.1315    Z=              0.1363  Tot=              2.4227
 Quadrupole moment (field-independent basis, Debye-Ang):
   XX=           -129.8934   YY=           -168.9832   ZZ=           -138.2750
   XY=            -14.4909   XZ=             -9.8130   YZ=              3.2740

 Normal termination of Gaussian 16 at Tue Sep 22 08:17:36 2020.
