 Gaussian 16, Revision B.01,

 ----------------------------------------------------------------------
 #p b3lyp/6-31G(d) opt freq NoSymm scf=(MaxCycle=2000,NoVarAcc,NoIncFoc
 k) scrf=(iefpcm,read,solvent=water)
 ----------------------------------------------------------------------

 --------------------
 SM40_38.n.13.pdb.xyz
 --------------------
 Symbolic Z-matrix:
 Charge =  0 Multiplicity = 1

 SCF Done:  E(RB3LYP) =  -1714.06721590     A.U. after   13 cycles
 SCF Done:  E(RB3LYP) =  -1714.06724958     A.U. after   10 cycles
 SCF Done:  E(RB3LYP) =  -1714.06723827     A.U. after    9 cycles
 SCF Done:  E(RB3LYP) =  -1714.06725120     A.U. after    8 cycles
 SCF Done:  E(RB3LYP) =  -1714.06724716     A.U. after    8 cycles
 SCF Done:  E(RB3LYP) =  -1714.06725777     A.U. after    8 cycles
 SCF Done:  E(RB3LYP) =  -1714.06725564     A.U. after    7 cycles
 SCF Done:  E(RB3LYP) =  -1714.06725650     A.U. after    7 cycles
 SCF Done:  E(RB3LYP) =  -1714.06725556     A.U. after    9 cycles
 SCF Done:  E(RB3LYP) =  -1714.06725878     A.U. after    8 cycles
 SCF Done:  E(RB3LYP) =  -1714.06725727     A.U. after    8 cycles
 Optimization completed.
    -- Stationary point found.
 Normal termination of Gaussian 16 at Tue Sep 22 06:36:24 2020.

 --------------------------------------------------------------------
 #P Geom=AllCheck Guess=TCheck SCRF=Check GenChk RB3LYP/6-31G(d) Freq
 --------------------------------------------------------------------

 Structure from the checkpoint file:  "SM40_38.n.13.pdb.xyz.mst.n.w.chk"
 --------------------
 SM40_38.n.13.pdb.xyz
 --------------------
 Charge =  0 Multiplicity = 1

 SCF Done:  E(RB3LYP) =  -1714.06725727     A.U. after    1 cycles

  Exact polarizability: 277.579 -27.938 232.606   9.966  23.347 237.216
 Approx polarizability: 304.676 -24.772 252.392   9.452  23.655 279.883

                      1                      2                      3
                      A                      A                      A
 Frequencies --     17.4445                27.1434                32.4522
 Red. masses --      3.7448                 5.4747                 4.6250
 Frc consts  --      0.0007                 0.0024                 0.0029
 IR Inten    --      0.4863                 3.6144                 0.9069

                      4                      5                      6
                      A                      A                      A
 Frequencies --     38.0130                46.5435                74.9587
 Red. masses --      7.0409                 5.1287                 2.8460
 Frc consts  --      0.0060                 0.0065                 0.0094
 IR Inten    --      6.2533                 1.4196                 0.5327

                      7                      8                      9
                      A                      A                      A
 Frequencies --     85.6658               117.4686               138.1307
 Red. masses --      3.5548                 3.1554                 5.5478
 Frc consts  --      0.0154                 0.0257                 0.0624
 IR Inten    --      1.6987                 8.1352                 0.8995

                     10                     11                     12
                      A                      A                      A
 Frequencies --    149.5740               187.4950               199.6588
 Red. masses --      9.8729                 3.9919                 4.0475
 Frc consts  --      0.1301                 0.0827                 0.0951
 IR Inten    --      2.6541                 3.7562                 3.6592

                     13                     14                     15
                      A                      A                      A
 Frequencies --    203.0041               213.2477               242.1457
 Red. masses --      1.3482                 1.4330                 3.5222
 Frc consts  --      0.0327                 0.0384                 0.1217
 IR Inten    --      2.2957                 1.7506                 1.6394

                     16                     17                     18
                      A                      A                      A
 Frequencies --    254.0460               286.7960               292.3567
 Red. masses --      3.2634                 3.1336                 3.3760
 Frc consts  --      0.1241                 0.1519                 0.1700
 IR Inten    --     12.9660                 7.5891                 7.0191

                     19                     20                     21
                      A                      A                      A
 Frequencies --    326.2666               330.5163               343.5998
 Red. masses --      2.7308                 3.5995                 2.9758
 Frc consts  --      0.1713                 0.2317                 0.2070
 IR Inten    --      7.1989                11.1473                13.3966

                     22                     23                     24
                      A                      A                      A
 Frequencies --    354.6149               360.7437               392.9008
 Red. masses --      3.0090                 3.0517                 5.0830
 Frc consts  --      0.2229                 0.2340                 0.4623
 IR Inten    --     15.0188                 5.6072                 4.1496

                     25                     26                     27
                      A                      A                      A
 Frequencies --    417.6924               436.7070               445.8438
 Red. masses --      2.9734                 3.6599                 4.9734
 Frc consts  --      0.3056                 0.4112                 0.5825
 IR Inten    --      0.0279                21.8529                17.6664

                     28                     29                     30
                      A                      A                      A
 Frequencies --    462.5192               489.8998               501.9025
 Red. masses --      4.4075                 1.4460                 4.7895
 Frc consts  --      0.5555                 0.2045                 0.7109
 IR Inten    --     79.0651               101.0342               118.1253

                     31                     32                     33
                      A                      A                      A
 Frequencies --    517.9617               519.7598               564.4167
 Red. masses --      3.5665                 3.6153                 7.1390
 Frc consts  --      0.5637                 0.5754                 1.3399
 IR Inten    --     20.1356                24.6323                43.0982

                     34                     35                     36
                      A                      A                      A
 Frequencies --    601.4258               618.1905               634.6813
 Red. masses --      5.6976                 4.5257                 6.3416
 Frc consts  --      1.2142                 1.0190                 1.5051
 IR Inten    --     85.1051                16.7378                 0.2779

                     37                     38                     39
                      A                      A                      A
 Frequencies --    670.1905               709.0438               721.6298
 Red. masses --      6.4339                 3.2720                 1.7810
 Frc consts  --      1.7026                 0.9692                 0.5464
 IR Inten    --    266.4424                10.3912                38.9438

                     40                     41                     42
                      A                      A                      A
 Frequencies --    760.8007               772.6963               778.2251
 Red. masses --      5.0052                 1.3257                 1.9542
 Frc consts  --      1.7069                 0.4664                 0.6973
 IR Inten    --    104.5172                14.7436                28.8619

                     43                     44                     45
                      A                      A                      A
 Frequencies --    810.4469               825.3766               839.2471
 Red. masses --      2.4290                 2.2906                 3.7879
 Frc consts  --      0.9400                 0.9194                 1.5719
 IR Inten    --     20.3544                 9.0831                 2.5114

                     46                     47                     48
                      A                      A                      A
 Frequencies --    864.8649               869.4258               931.5502
 Red. masses --      1.2578                 3.8797                 1.6039
 Frc consts  --      0.5543                 1.7279                 0.8200
 IR Inten    --      0.4383                37.0251                37.3893

                     49                     50                     51
                      A                      A                      A
 Frequencies --    932.9187               942.8138               960.3488
 Red. masses --      2.6760                 2.7368                 1.9902
 Frc consts  --      1.3722                 1.4333                 1.0815
 IR Inten    --    126.3158               111.7924                 3.3142

                     52                     53                     54
                      A                      A                      A
 Frequencies --    977.0815              1005.5362              1016.5807
 Red. masses --      1.3547                 1.2564                 6.1080
 Frc consts  --      0.7620                 0.7485                 3.7191
 IR Inten    --      0.0380                 0.0771                 1.5419

                     55                     56                     57
                      A                      A                      A
 Frequencies --   1022.1189              1051.8569              1055.5601
 Red. masses --      1.9517                 3.1319                 2.3125
 Frc consts  --      1.2013                 2.0416                 1.5181
 IR Inten    --     69.0477                 3.0060                16.0752

                     58                     59                     60
                      A                      A                      A
 Frequencies --   1066.7010              1076.1596              1080.8057
 Red. masses --      1.6307                 1.5791                 1.6205
 Frc consts  --      1.0932                 1.0775                 1.1153
 IR Inten    --     24.3506                10.1896                29.9478

                     61                     62                     63
                      A                      A                      A
 Frequencies --   1089.0361              1109.2746              1126.5014
 Red. masses --      2.6057                 7.9019                 1.6484
 Frc consts  --      1.8208                 5.7288                 1.2324
 IR Inten    --    168.5726               443.8051                 8.7999

                     64                     65                     66
                      A                      A                      A
 Frequencies --   1131.1104              1158.3921              1179.9787
 Red. masses --      1.2360                 5.5528                 1.3852
 Frc consts  --      0.9317                 4.3901                 1.1364
 IR Inten    --      7.0928                37.5487                 7.7063

                     67                     68                     69
                      A                      A                      A
 Frequencies --   1188.2274              1204.6409              1205.2560
 Red. masses --      1.0969                 1.1441                 1.2977
 Frc consts  --      0.9125                 0.9782                 1.1107
 IR Inten    --      0.1454                 1.6474                15.4257

                     70                     71                     72
                      A                      A                      A
 Frequencies --   1212.6755              1230.7549              1240.4267
 Red. masses --      3.2700                 2.0802                 1.9016
 Frc consts  --      2.8332                 1.8565                 1.7239
 IR Inten    --     60.5633               104.0097                46.1136

                     73                     74                     75
                      A                      A                      A
 Frequencies --   1244.1900              1267.7202              1274.2556
 Red. masses --      1.8076                 2.8297                 1.9298
 Frc consts  --      1.6487                 2.6794                 1.8462
 IR Inten    --     45.9475               166.7598                45.2973

                     76                     77                     78
                      A                      A                      A
 Frequencies --   1283.4066              1291.4269              1333.5152
 Red. masses --      2.7711                 6.1189                 1.4138
 Frc consts  --      2.6892                 6.0126                 1.4813
 IR Inten    --    152.4862               342.0622                39.5336

                     79                     80                     81
                      A                      A                      A
 Frequencies --   1337.0949              1362.0686              1373.2245
 Red. masses --      1.4212                 2.6620                 1.3549
 Frc consts  --      1.4970                 2.9098                 1.5054
 IR Inten    --     19.4886                 0.0265                 1.2195

                     82                     83                     84
                      A                      A                      A
 Frequencies --   1407.2780              1449.6755              1459.3374
 Red. masses --      1.4535                 1.1627                 1.1293
 Frc consts  --      1.6960                 1.4396                 1.4170
 IR Inten    --     16.8297                49.6772                 8.0336

                     85                     86                     87
                      A                      A                      A
 Frequencies --   1462.6116              1481.0320              1486.9755
 Red. masses --      1.1078                 1.1496                 1.1561
 Frc consts  --      1.3963                 1.4857                 1.5061
 IR Inten    --     35.2724                 0.9698                27.2906

                     88                     89                     90
                      A                      A                      A
 Frequencies --   1500.3107              1504.8020              1506.2356
 Red. masses --      1.9521                 1.1201                 1.0685
 Frc consts  --      2.5889                 1.4944                 1.4283
 IR Inten    --      3.3601                 5.0204                 6.4367

                     91                     92                     93
                      A                      A                      A
 Frequencies --   1518.1465              1522.1749              1525.5820
 Red. masses --      1.0515                 1.0623                 1.0862
 Frc consts  --      1.4278                 1.4502                 1.4894
 IR Inten    --     17.0702                17.6174                 3.5835

                     94                     95                     96
                      A                      A                      A
 Frequencies --   1533.2165              1543.2010              1643.0815
 Red. masses --      1.0485                 2.2569                 5.4550
 Frc consts  --      1.4523                 3.1667                 8.6769
 IR Inten    --     23.3764                19.3500                 1.7065

                     97                     98                     99
                      A                      A                      A
 Frequencies --   1662.4498              3053.2920              3064.0058
 Red. masses --      5.7271                 1.0469                 1.0608
 Frc consts  --      9.3258                 5.7505                 5.8676
 IR Inten    --      9.8014                79.6008                12.2824

                    100                    101                    102
                      A                      A                      A
 Frequencies --   3067.1708              3070.9357              3106.3138
 Red. masses --      1.0407                 1.0629                 1.1014
 Frc consts  --      5.7682                 5.9061                 6.2615
 IR Inten    --     55.7217                76.5926                25.8065

                    103                    104                    105
                      A                      A                      A
 Frequencies --   3131.3762              3139.3408              3143.3746
 Red. masses --      1.1012                 1.0576                 1.0920
 Frc consts  --      6.3619                 6.1413                 6.3570
 IR Inten    --     27.2080                 1.6817                32.8964

                    106                    107                    108
                      A                      A                      A
 Frequencies --   3148.9802              3157.1838              3179.8152
 Red. masses --      1.0965                 1.0592                 1.1048
 Frc consts  --      6.4064                 6.2203                 6.5814
 IR Inten    --     19.6678                11.7990                20.6488

                    109                    110                    111
                      A                      A                      A
 Frequencies --   3190.3429              3191.3428              3203.4567
 Red. masses --      1.0863                 1.0877                 1.0899
 Frc consts  --      6.5141                 6.5269                 6.5896
 IR Inten    --     17.3697                10.0258                11.6882

                    112                    113                    114
                      A                      A                      A
 Frequencies --   3207.6608              3209.8335              3210.7413
 Red. masses --      1.1012                 1.0940                 1.1112
 Frc consts  --      6.6758                 6.6411                 6.7492
 IR Inten    --      7.4295                74.3992                 0.5851

                    115                    116                    117
                      A                      A                      A
 Frequencies --   3222.9807              3236.6254              3543.2652
 Red. masses --      1.0976                 1.1089                 1.0765
 Frc consts  --      6.7178                 6.8445                 7.9630
 IR Inten    --     34.7456                17.4084               141.6194

 - Thermochemistry -
 -------------------
 Temperature   298.150 Kelvin.  Pressure   1.00000 Atm.
 Atom     1 has atomic number 16 and mass  31.97207

 Molecular mass:   332.08645 amu.
 Principal axes and moments of inertia in atomic units:
                           1         2         3
     Eigenvalues --  5829.788659968.22583**********
           X            0.99999   0.00390   0.00356
           Y           -0.00390   0.99999   0.00149
           Z           -0.00355  -0.00150   0.99999
 This molecule is an asymmetric top.
 Rotational symmetry number  1.
 Warning -- assumption of classical behavior for rotation
           may cause significant error
 Rotational temperatures (Kelvin)      0.01486     0.00869     0.00612
 Rotational constants (GHZ):           0.30957     0.18105     0.12754
 Zero-point vibrational energy     874440.8 (Joules/Mol)
                                  208.99638 (Kcal/Mol)
 Warning -- explicit consideration of  35 degrees of freedom as
           vibrations may cause significant error
 Vibrational temperatures:     25.10    39.05    46.69    54.69    66.97
          (Kelvin)            107.85   123.25   169.01   198.74   215.20
                              269.76   287.26   292.08   306.82   348.39
                              365.52   412.64   420.64   469.42   475.54
                              494.36   510.21   519.03   565.30   600.97
                              628.32   641.47   665.46   704.86   722.13
                              745.23   747.82   812.07   865.32   889.44
                              913.16   964.25  1020.16  1038.26  1094.62
                             1111.74  1119.69  1166.05  1187.53  1207.49
                             1244.35  1250.91  1340.29  1342.26  1356.50
                             1381.73  1405.80  1446.74  1462.63  1470.60
                             1513.39  1518.72  1534.74  1548.35  1555.04
                             1566.88  1596.00  1620.78  1627.42  1666.67
                             1697.73  1709.59  1733.21  1734.09  1744.77
                             1770.78  1784.70  1790.11  1823.97  1833.37
                             1846.54  1858.08  1918.63  1923.78  1959.71
                             1975.76  2024.76  2085.76  2099.66  2104.37
                             2130.87  2139.43  2158.61  2165.07  2167.14
                             2184.27  2190.07  2194.97  2205.96  2220.32
                             2364.03  2391.89  4393.01  4408.42  4412.97
                             4418.39  4469.29  4505.35  4516.81  4522.61
                             4530.68  4542.48  4575.04  4590.19  4591.63
                             4609.06  4615.11  4618.23  4619.54  4637.15
                             4656.78  5097.97

 Zero-point correction=                           0.333057 (Hartree/Particle)
 Thermal correction to Energy=                    0.354463
 Thermal correction to Enthalpy=                  0.355407
 Thermal correction to Gibbs Free Energy=         0.280346
 Sum of electronic and zero-point Energies=          -1713.734200
 Sum of electronic and thermal Energies=             -1713.712794
 Sum of electronic and thermal Enthalpies=           -1713.711850
 Sum of electronic and thermal Free Energies=        -1713.786911

                     E (Thermal)             CV                S
                      KCal/Mol        Cal/Mol-Kelvin    Cal/Mol-Kelvin
 Total                  222.429             81.328            157.979
 Electronic               0.000              0.000              0.000
 Translational            0.889              2.981             43.296
 Rotational               0.889              2.981             35.063
 Vibrational            220.652             75.366             79.621
 Vibration     1          0.593              1.986              6.906
 Vibration     2          0.593              1.984              6.028
 Vibration     3          0.594              1.983              5.674
 Vibration     4          0.594              1.982              5.360
 Vibration     5          0.595              1.979              4.959
 Vibration     6          0.599              1.966              4.019
 Vibration     7          0.601              1.959              3.757
 Vibration     8          0.608              1.935              3.142
 Vibration     9          0.614              1.915              2.830
 Vibration    10          0.618              1.903              2.678
 Vibration    11          0.632              1.857              2.252
 Vibration    12          0.638              1.840              2.136
 Vibration    13          0.639              1.836              2.106
 Vibration    14          0.644              1.821              2.016
 Vibration    15          0.658              1.776              1.787
 Vibration    16          0.665              1.756              1.702
 Vibration    17          0.684              1.698              1.493
 Vibration    18          0.688              1.688              1.460
 Vibration    19          0.710              1.623              1.279
 Vibration    20          0.713              1.615              1.258
 Vibration    21          0.722              1.588              1.195
 Vibration    22          0.730              1.566              1.146
 Vibration    23          0.735              1.553              1.119
 Vibration    24          0.760              1.485              0.989
 Vibration    25          0.781              1.432              0.900
 Vibration    26          0.797              1.390              0.837
 Vibration    27          0.805              1.370              0.808
 Vibration    28          0.820              1.333              0.759
 Vibration    29          0.846              1.272              0.684
 Vibration    30          0.857              1.246              0.653
 Vibration    31          0.873              1.210              0.615
 Vibration    32          0.875              1.206              0.611
 Vibration    33          0.920              1.108              0.515
 Vibration    34          0.960              1.029              0.447
 Vibration    35          0.978              0.993              0.419

                           ! Non-Optimized Parameters !
 Normal termination of Gaussian 16 at Tue Sep 22 06:56:04 2020.

 ----------------------------------------------------------------------
 #p b3lyp/6-31G(d) scrf=(iefpcm,read,solvent=water) geom=allcheck guess
 =read
 ----------------------------------------------------------------------

 Structure from the checkpoint file:  "SM40_38.n.13.pdb.xyz.mst.n.w.chk"
 --------------------
 SM40_38.n.13.pdb.xyz
 --------------------
 Charge =  0 Multiplicity = 1

 SCF Done:  E(RB3LYP) =  -1714.06724789     A.U. after    5 cycles
 Normal termination of Gaussian 16 at Tue Sep 22 06:56:47 2020.

 -----------------------------
 #p B3LYP/6-31G* geom=allcheck
 -----------------------------

 Structure from the checkpoint file:  "SM40_38.n.13.pdb.xyz.mst.n.w.chk"
 --------------------
 SM40_38.n.13.pdb.xyz
 --------------------
 Charge =  0 Multiplicity = 1

 SCF Done:  E(RB3LYP) =  -1714.03213359     A.U. after   15 cycles
 Normal termination of Gaussian 16 at Tue Sep 22 06:57:56 2020.
 Gaussian 16:  ES64L-G16RevB.01 20-Dec-2017

 ----------------------------------------------------------------------
 #p mp2/aug-cc-pVDZ scf=(MaxCycle=2000,NoVarAcc,NoIncFock) maxdisk=120G
 B geom=allcheck
 ----------------------------------------------------------------------

 Structure from the checkpoint file:  "SM40_38.n.13.pdb.xyz.mst.n.w.chk"
 --------------------
 SM40_38.n.13.pdb.xyz
 --------------------
 Charge =  0 Multiplicity = 1

                         Standard orientation:
 ---------------------------------------------------------------------
 Center     Atomic      Atomic             Coordinates (Angstroms)
 Number     Number       Type             X           Y           Z
 ---------------------------------------------------------------------
      1         16           0        2.086957    1.792004   -0.093458
      2          7           0        1.680195    0.361875   -0.839413
      3          6           0        0.782345   -0.689868   -0.306132
      4          6           0        1.343264   -1.240378    1.044839
      5         16           0        2.155692   -2.608858    0.159585
      6          6           0        1.078048   -1.964911   -1.165085
      7          8           0        3.584093   -2.340005   -0.101419
      8          8           0        1.779046   -3.951752    0.642500
      9          6           0       -0.696794   -0.262221   -0.300984
     10          6           0       -1.702989   -1.288545    0.251935
     11          6           0       -3.124450   -0.776121    0.159548
     12          6           0       -3.909494   -1.041640   -0.970358
     13          6           0       -5.210806   -0.546881   -1.071162
     14          6           0       -5.749340    0.224412   -0.039061
     15          6           0       -4.977331    0.494875    1.093081
     16          6           0       -3.676661   -0.002492    1.189426
     17          8           0        2.986531    2.452152   -1.050012
     18          8           0        2.574667    1.494893    1.256965
     19          1           0        1.603672    0.496888   -1.845863
     20          1           0        0.569816   -1.643233    1.696506
     21          1           0        2.019041   -0.584735    1.587291
     22          1           0        0.211540   -2.615684   -1.280003
     23          1           0        1.578039   -1.808996   -2.121159
     24          1           0       -0.967979   -0.019977   -1.334546
     25          1           0       -0.773623    0.666915    0.269301
     26          1           0       -1.468292   -1.510972    1.297404
     27          1           0       -1.625590   -2.230301   -0.301023
     28          1           0       -3.498013   -1.645336   -1.774673
     29          1           0       -5.804410   -0.767541   -1.952707
     30          1           0       -6.762037    0.607120   -0.114124
     31          1           0       -5.388582    1.088777    1.903558
     32          1           0       -3.083873    0.206544    2.075594
     33          7           0        0.658324    2.666706    0.115186
     34          6           0        0.109816    3.217824   -1.133679
     35          1           0       -0.900377    3.569090   -0.918128
     36          1           0        0.708391    4.051285   -1.518047
     37          1           0        0.045969    2.439190   -1.894269
     38          6           0        0.702884    3.650867    1.212138
     39          1           0        1.328833    4.519048    0.972475
     40          1           0       -0.321424    3.989544    1.377167
     41          1           0        1.071223    3.170152    2.115500
 ---------------------------------------------------------------------

 SCF Done:  E(RHF) =  -1707.24323115     A.U. after   19 cycles
 E2 =    -0.3320100563D+01 EUMP2 =    -0.17105633317087D+04

 The electronic state is 1-A.
 Alpha  occ. eigenvalues --  -92.25725 -92.19876 -20.57285 -20.56988 -20.55888
 Alpha  occ. eigenvalues --  -20.55410 -15.63478 -15.62914 -11.34822 -11.30224
 Alpha  occ. eigenvalues --  -11.29715 -11.28968 -11.28913 -11.26907 -11.26887
 Alpha  occ. eigenvalues --  -11.26719 -11.26037 -11.26021 -11.25778 -11.25757
 Alpha  occ. eigenvalues --  -11.25644  -9.22176  -9.17116  -6.90741  -6.90680
 Alpha  occ. eigenvalues --   -6.90643  -6.85604  -6.85513  -6.85447  -1.48228
 Alpha  occ. eigenvalues --   -1.43863  -1.35267  -1.32531  -1.27906  -1.26338
 Alpha  occ. eigenvalues --   -1.17706  -1.15065  -1.09222  -1.03349  -1.02279
 Alpha  occ. eigenvalues --   -0.99722  -0.98964  -0.96764  -0.93181  -0.86262
 Alpha  occ. eigenvalues --   -0.84718  -0.82702  -0.81608  -0.78958  -0.75535
 Alpha  occ. eigenvalues --   -0.72521  -0.71475  -0.70620  -0.69017  -0.68275
 Alpha  occ. eigenvalues --   -0.67734  -0.66055  -0.65338  -0.65221  -0.64028
 Alpha  occ. eigenvalues --   -0.62699  -0.62163  -0.61303  -0.60803  -0.60273
 Alpha  occ. eigenvalues --   -0.59791  -0.58709  -0.58481  -0.57837  -0.55736
 Alpha  occ. eigenvalues --   -0.55586  -0.54595  -0.52142  -0.51832  -0.51413
 Alpha  occ. eigenvalues --   -0.50608  -0.50427  -0.50310  -0.49109  -0.48478
 Alpha  occ. eigenvalues --   -0.48147  -0.47981  -0.46057  -0.44315  -0.42767
 Alpha  occ. eigenvalues --   -0.41748  -0.35401  -0.34550
 Alpha virt. eigenvalues --    0.01783   0.02466   0.03141   0.03342   0.04115
 Alpha virt. eigenvalues --    0.04627   0.04931   0.04954   0.05651   0.06239
 Alpha virt. eigenvalues --    0.06627   0.07063   0.07218   0.07573   0.08082

 Mulliken charges:
               1
     1  S    3.182065
     2  N   -1.093134
     3  C    0.124235
     4  C    0.318804
     5  S    2.864376
     6  C    0.456242
     7  O   -1.256728
     8  O   -1.240510
     9  C    0.259898
    10  C    0.870986
    11  C    1.174170
    12  C    0.555834
    13  C   -0.034659
    14  C    0.678093
    15  C   -0.016671
    16  C    0.732916
    17  O   -1.143367
    18  O   -1.182773
    19  H   -0.113611
    20  H   -0.238658
    21  H   -0.274981
    22  H   -0.193369
    23  H   -0.299304
    24  H   -0.138783
    25  H   -0.295613
    26  H   -0.248308
    27  H   -0.359969
    28  H   -0.694680
    29  H   -0.472552
    30  H   -0.439614
    31  H   -0.487403
    32  H   -0.720002
    33  N   -1.101701
    34  C    0.802137
    35  H   -0.144048
    36  H   -0.104789
    37  H   -0.197692
    38  C    0.896314
    39  H   -0.095906
    40  H   -0.169197
    41  H   -0.158047
 Sum of Mulliken charges =  -0.00000

 Dipole moment (field-independent basis, Debye):
    X=             -9.4380    Y=              4.6329    Z=             -2.1175  Tot=             10.7249
 Quadrupole moment (field-independent basis, Debye-Ang):
   XX=           -172.5913   YY=           -155.8929   ZZ=           -131.5490
   XY=              3.0147   XZ=              0.1759   YZ=             10.0447

 Normal termination of Gaussian 16 at Tue Sep 22 08:48:25 2020.
