 Gaussian 16, Revision B.01,

 ----------------------------------------------------------------------
 #p b3lyp/6-31G(d) opt freq NoSymm scf=(MaxCycle=2000,NoVarAcc,NoIncFoc
 k) scrf=(iefpcm,read,solvent=water)
 ----------------------------------------------------------------------

 -----------------
 SM40.n.15.pdb.xyz
 -----------------
 Symbolic Z-matrix:
 Charge =  0 Multiplicity = 1

 SCF Done:  E(RB3LYP) =  -1714.06176260     A.U. after   13 cycles
 SCF Done:  E(RB3LYP) =  -1714.06172746     A.U. after   10 cycles
 SCF Done:  E(RB3LYP) =  -1714.06178886     A.U. after    9 cycles
 SCF Done:  E(RB3LYP) =  -1714.06179468     A.U. after    9 cycles
 SCF Done:  E(RB3LYP) =  -1714.06176962     A.U. after    8 cycles
 SCF Done:  E(RB3LYP) =  -1714.06178650     A.U. after    8 cycles
 SCF Done:  E(RB3LYP) =  -1714.06179772     A.U. after    9 cycles
 SCF Done:  E(RB3LYP) =  -1714.06180791     A.U. after    9 cycles
 SCF Done:  E(RB3LYP) =  -1714.06181247     A.U. after    8 cycles
 SCF Done:  E(RB3LYP) =  -1714.06185185     A.U. after    9 cycles
 SCF Done:  E(RB3LYP) =  -1714.06956973     A.U. after    8 cycles
 SCF Done:  E(RB3LYP) =  -1714.06953948     A.U. after    9 cycles
 SCF Done:  E(RB3LYP) =  -1714.06953930     A.U. after    7 cycles
 SCF Done:  E(RB3LYP) =  -1714.06956799     A.U. after    9 cycles
 SCF Done:  E(RB3LYP) =  -1714.06956963     A.U. after    8 cycles
 SCF Done:  E(RB3LYP) =  -1714.06953920     A.U. after    9 cycles
 Optimization completed.
    -- Stationary point found.
 Normal termination of Gaussian 16 at Tue Sep 22 07:26:37 2020.

 --------------------------------------------------------------------
 #P Geom=AllCheck Guess=TCheck SCRF=Check GenChk RB3LYP/6-31G(d) Freq
 --------------------------------------------------------------------

 Structure from the checkpoint file:  "SM40.n.15.pdb.xyz.mst.n.w.chk"
 -----------------
 SM40.n.15.pdb.xyz
 -----------------
 Charge =  0 Multiplicity = 1

 SCF Done:  E(RB3LYP) =  -1714.06953920     A.U. after    1 cycles

  Exact polarizability: 289.466  -2.845 268.650  15.834   8.745 187.294
 Approx polarizability: 312.699   0.209 307.441  24.066   8.577 215.702

                      1                      2                      3
                      A                      A                      A
 Frequencies --     15.2290                21.0654                37.2671
 Red. masses --      3.8800                 4.5262                 7.0516
 Frc consts  --      0.0005                 0.0012                 0.0058
 IR Inten    --      0.2064                 1.7751                 2.7064

                      4                      5                      6
                      A                      A                      A
 Frequencies --     48.0941                51.9755                72.5234
 Red. masses --      6.0291                 3.5892                 3.8371
 Frc consts  --      0.0082                 0.0057                 0.0119
 IR Inten    --      4.2102                 0.8468                 7.1434

                      7                      8                      9
                      A                      A                      A
 Frequencies --     84.8961               102.8681               132.5741
 Red. masses --      3.9306                 4.1610                 6.1024
 Frc consts  --      0.0167                 0.0259                 0.0632
 IR Inten    --      2.3974                 0.2484                 1.0930

                     10                     11                     12
                      A                      A                      A
 Frequencies --    159.7061               179.0225               193.4974
 Red. masses --      6.7044                 4.3914                 1.7434
 Frc consts  --      0.1008                 0.0829                 0.0385
 IR Inten    --      6.9640                13.8017                 3.2027

                     13                     14                     15
                      A                      A                      A
 Frequencies --    213.0927               222.1799               238.6427
 Red. masses --      1.1099                 2.4333                 3.3571
 Frc consts  --      0.0297                 0.0708                 0.1126
 IR Inten    --      1.0792                14.0594                 2.1156

                     16                     17                     18
                      A                      A                      A
 Frequencies --    255.7992               270.7880               287.4152
 Red. masses --      3.4863                 5.1622                 3.4022
 Frc consts  --      0.1344                 0.2230                 0.1656
 IR Inten    --      1.8145                 7.6153                 4.9709

                     19                     20                     21
                      A                      A                      A
 Frequencies --    309.8304               331.2994               350.6796
 Red. masses --      2.9502                 2.5942                 2.8511
 Frc consts  --      0.1669                 0.1678                 0.2066
 IR Inten    --      4.8883                 3.4231                 3.9650

                     22                     23                     24
                      A                      A                      A
 Frequencies --    363.3718               381.1053               393.9409
 Red. masses --      2.8091                 2.6160                 6.7915
 Frc consts  --      0.2185                 0.2239                 0.6210
 IR Inten    --      7.9372                 3.0976                26.5036

                     25                     26                     27
                      A                      A                      A
 Frequencies --    418.3427               419.3322               448.0023
 Red. masses --      5.3464                 3.0245                 2.7928
 Frc consts  --      0.5513                 0.3133                 0.3303
 IR Inten    --     21.4660                 0.7332                29.5382

                     28                     29                     30
                      A                      A                      A
 Frequencies --    468.1946               484.7445               492.3231
 Red. masses --      4.9704                 2.8324                 3.9464
 Frc consts  --      0.6419                 0.3921                 0.5636
 IR Inten    --     36.7293                49.4010                46.6421

                     31                     32                     33
                      A                      A                      A
 Frequencies --    522.7147               544.0753               572.7798
 Red. masses --      2.9280                 3.7857                 7.5302
 Frc consts  --      0.4714                 0.6603                 1.4556
 IR Inten    --     25.7682               103.0264                88.8670

                     34                     35                     36
                      A                      A                      A
 Frequencies --    607.1602               615.0084               634.9329
 Red. masses --      4.6085                 4.4735                 6.3241
 Frc consts  --      1.0010                 0.9969                 1.5021
 IR Inten    --     63.9715                58.0422                 0.2638

                     37                     38                     39
                      A                      A                      A
 Frequencies --    669.1559               717.4140               728.0097
 Red. masses --      5.7088                 2.0501                 2.6155
 Frc consts  --      1.5061                 0.6217                 0.8167
 IR Inten    --    144.7712                29.7034                 7.8461

                     40                     41                     42
                      A                      A                      A
 Frequencies --    757.4501               768.5064               775.7934
 Red. masses --      5.6914                 1.5739                 1.5135
 Frc consts  --      1.9239                 0.5477                 0.5367
 IR Inten    --     98.8286                24.3241                26.3452

                     43                     44                     45
                      A                      A                      A
 Frequencies --    814.3501               820.5337               846.9982
 Red. masses --      4.1072                 1.6247                 3.5561
 Frc consts  --      1.6048                 0.6445                 1.5031
 IR Inten    --      2.0360                23.3768                17.2433

                     46                     47                     48
                      A                      A                      A
 Frequencies --    867.0053               887.1825               913.9769
 Red. masses --      1.2519                 2.8955                 2.2231
 Frc consts  --      0.5545                 1.3428                 1.0942
 IR Inten    --      0.6212                95.9155                21.4371

                     49                     50                     51
                      A                      A                      A
 Frequencies --    936.2185               940.9698               978.4271
 Red. masses --      1.5119                 3.2402                 1.4129
 Frc consts  --      0.7808                 1.6904                 0.7969
 IR Inten    --      1.9170               239.5678                 6.5390

                     52                     53                     54
                      A                      A                      A
 Frequencies --    983.0470              1006.0829              1011.4544
 Red. masses --      2.3820                 1.3081                 1.7064
 Frc consts  --      1.3563                 0.7801                 1.0285
 IR Inten    --     71.4459                 1.8763                16.5653

                     55                     56                     57
                      A                      A                      A
 Frequencies --   1017.0472              1045.6455              1051.0061
 Red. masses --      6.1175                 2.4953                 1.2925
 Frc consts  --      3.7282                 1.6074                 0.8412
 IR Inten    --      0.3259                 3.7380                21.6674

                     58                     59                     60
                      A                      A                      A
 Frequencies --   1056.2656              1068.5767              1075.4648
 Red. masses --      2.1929                 1.6258                 2.0098
 Frc consts  --      1.4415                 1.0938                 1.3696
 IR Inten    --      7.4789                20.0784               146.5673

                     61                     62                     63
                      A                      A                      A
 Frequencies --   1088.4846              1101.1986              1118.8019
 Red. masses --      3.9731                 8.0323                 1.8782
 Frc consts  --      2.7735                 5.7388                 1.3851
 IR Inten    --    221.8930               239.2011                13.6691

                     64                     65                     66
                      A                      A                      A
 Frequencies --   1132.2740              1155.3107              1180.2936
 Red. masses --      1.2287                 2.5489                 1.3897
 Frc consts  --      0.9281                 2.0045                 1.1406
 IR Inten    --      2.2212                75.9124                 5.7839

                     67                     68                     69
                      A                      A                      A
 Frequencies --   1184.6226              1195.8139              1207.1551
 Red. masses --      1.0894                 1.3222                 1.1414
 Frc consts  --      0.9008                 1.1140                 0.9800
 IR Inten    --      0.2026                 6.3441                 0.2546

                     70                     71                     72
                      A                      A                      A
 Frequencies --   1215.9500              1219.5649              1236.7516
 Red. masses --      3.3221                 1.5114                 2.4592
 Frc consts  --      2.8940                 1.3244                 2.2162
 IR Inten    --     37.8610                64.6186                 0.3062

                     73                     74                     75
                      A                      A                      A
 Frequencies --   1248.8519              1267.1075              1274.6615
 Red. masses --      2.8382                 2.9296                 2.9990
 Frc consts  --      2.6081                 2.7713                 2.8709
 IR Inten    --     70.5975               245.2866               313.4862

                     76                     77                     78
                      A                      A                      A
 Frequencies --   1280.6936              1288.0932              1323.6858
 Red. masses --      2.4823                 2.9510                 1.4877
 Frc consts  --      2.3988                 2.8848                 1.5358
 IR Inten    --    178.1757                67.8840                 3.3256

                     79                     80                     81
                      A                      A                      A
 Frequencies --   1351.6804              1362.4061              1370.5742
 Red. masses --      1.4735                 3.1233                 1.2815
 Frc consts  --      1.5862                 3.4156                 1.4183
 IR Inten    --     18.5289                 0.8291                 9.1128

                     82                     83                     84
                      A                      A                      A
 Frequencies --   1408.9036              1452.6871              1454.2102
 Red. masses --      1.4299                 1.0996                 1.1384
 Frc consts  --      1.6723                 1.3672                 1.4184
 IR Inten    --     22.6487                36.7438                 1.1083

                     85                     86                     87
                      A                      A                      A
 Frequencies --   1471.3350              1474.6966              1482.6516
 Red. masses --      1.1509                 1.1102                 1.2208
 Frc consts  --      1.4679                 1.4225                 1.5812
 IR Inten    --      1.1922                26.3407                77.6033

                     88                     89                     90
                      A                      A                      A
 Frequencies --   1498.9272              1504.1761              1507.5094
 Red. masses --      1.7138                 1.0450                 1.1944
 Frc consts  --      2.2687                 1.3930                 1.5993
 IR Inten    --      5.0496                12.4280                27.4315

                     91                     92                     93
                      A                      A                      A
 Frequencies --   1514.9433              1519.0679              1523.8987
 Red. masses --      1.0460                 1.0645                 1.1126
 Frc consts  --      1.4144                 1.4473                 1.5223
 IR Inten    --      7.9489                15.8303                 7.3257

                     94                     95                     96
                      A                      A                      A
 Frequencies --   1532.3081              1544.7541              1643.0881
 Red. masses --      1.0474                 2.2480                 5.5085
 Frc consts  --      1.4489                 3.1606                 8.7620
 IR Inten    --     15.5138                18.4791                 1.6041

                     97                     98                     99
                      A                      A                      A
 Frequencies --   1663.6564              3058.2782              3062.1835
 Red. masses --      5.6784                 1.0437                 1.0508
 Frc consts  --      9.2599                 5.7513                 5.8052
 IR Inten    --      9.1543                36.4525                53.4364

                    100                    101                    102
                      A                      A                      A
 Frequencies --   3062.2909              3079.3351              3102.1527
 Red. masses --      1.0524                 1.0599                 1.1031
 Frc consts  --      5.8144                 5.9215                 6.2543
 IR Inten    --     85.9994                36.2553                20.1445

                    103                    104                    105
                      A                      A                      A
 Frequencies --   3128.2738              3144.0555              3145.7702
 Red. masses --      1.1054                 1.0570                 1.0947
 Frc consts  --      6.3737                 6.1558                 6.3828
 IR Inten    --     47.2586                 7.2749                35.9610

                    106                    107                    108
                      A                      A                      A
 Frequencies --   3147.2524              3148.0563              3189.8831
 Red. masses --      1.0577                 1.0940                 1.1038
 Frc consts  --      6.1728                 6.3876                 6.6176
 IR Inten    --      9.6015                12.7981                 9.7203

                    109                    110                    111
                      A                      A                      A
 Frequencies --   3191.2976              3192.4999              3203.3946
 Red. masses --      1.0863                 1.0876                 1.0898
 Frc consts  --      6.5184                 6.5312                 6.5892
 IR Inten    --     16.1630                 9.7146                16.0261

                    112                    113                    114
                      A                      A                      A
 Frequencies --   3205.2565              3211.5092              3216.6676
 Red. masses --      1.1020                 1.0939                 1.1116
 Frc consts  --      6.6708                 6.6476                 6.7767
 IR Inten    --      6.7577                73.3613                10.9298

                    115                    116                    117
                      A                      A                      A
 Frequencies --   3222.9032              3226.4034              3543.4040
 Red. masses --      1.0978                 1.1111                 1.0753
 Frc consts  --      6.7185                 6.8145                 7.9549
 IR Inten    --     32.5510                 4.5727               141.2794

 - Thermochemistry -
 -------------------
 Temperature   298.150 Kelvin.  Pressure   1.00000 Atm.
 Atom     1 has atomic number  8 and mass  15.99491

 Molecular mass:   332.08645 amu.
 Principal axes and moments of inertia in atomic units:
                           1         2         3
     Eigenvalues --  4582.89604********************
           X            0.99968  -0.01688  -0.01896
           Y            0.02042   0.97841   0.20565
           Z            0.01508  -0.20597   0.97844
 This molecule is an asymmetric top.
 Rotational symmetry number  1.
 Warning -- assumption of classical behavior for rotation
           may cause significant error
 Rotational temperatures (Kelvin)      0.01890     0.00714     0.00574
 Rotational constants (GHZ):           0.39380     0.14882     0.11953
 Zero-point vibrational energy     874247.2 (Joules/Mol)
                                  208.95009 (Kcal/Mol)
 Warning -- explicit consideration of  35 degrees of freedom as
           vibrations may cause significant error
 Vibrational temperatures:     21.91    30.31    53.62    69.20    74.78
          (Kelvin)            104.34   122.15   148.00   190.74   229.78
                              257.57   278.40   306.59   319.67   343.35
                              368.04   389.60   413.53   445.78   476.67
                              504.55   522.81   548.33   566.79   601.90
                              603.33   644.58   673.63   697.44   708.34
                              752.07   782.80   824.10   873.57   884.86
                              913.53   962.77  1032.20  1047.44  1089.80
                             1105.71  1116.19  1171.67  1180.56  1218.64
                             1247.43  1276.46  1315.01  1347.01  1353.85
                             1407.74  1414.39  1447.53  1455.26  1463.30
                             1504.45  1512.16  1519.73  1537.44  1547.35
                             1566.09  1584.38  1609.71  1629.09  1662.23
                             1698.18  1704.41  1720.51  1736.83  1749.48
                             1754.68  1779.41  1796.82  1823.09  1833.95
                             1842.63  1853.28  1904.49  1944.77  1960.20
                             1971.95  2027.10  2090.09  2092.28  2116.92
                             2121.76  2133.20  2156.62  2164.17  2168.97
                             2179.67  2185.60  2192.55  2204.65  2222.56
                             2364.04  2393.63  4400.18  4405.80  4405.95
                             4430.48  4463.31  4500.89  4523.59  4526.06
                             4528.19  4529.35  4589.53  4591.57  4593.30
                             4608.97  4611.65  4620.65  4628.07  4637.04
                             4642.07  5098.17

 Zero-point correction=                           0.332983 (Hartree/Particle)
 Thermal correction to Energy=                    0.354387
 Thermal correction to Enthalpy=                  0.355331
 Thermal correction to Gibbs Free Energy=         0.280197
 Sum of electronic and zero-point Energies=          -1713.736556
 Sum of electronic and thermal Energies=             -1713.715152
 Sum of electronic and thermal Enthalpies=           -1713.714208
 Sum of electronic and thermal Free Energies=        -1713.789342

                     E (Thermal)             CV                S
                      KCal/Mol        Cal/Mol-Kelvin    Cal/Mol-Kelvin
 Total                  222.381             81.298            158.134
 Electronic               0.000              0.000              0.000
 Translational            0.889              2.981             43.296
 Rotational               0.889              2.981             35.083
 Vibrational            220.604             75.337             79.756
 Vibration     1          0.593              1.986              7.175
 Vibration     2          0.593              1.985              6.531
 Vibration     3          0.594              1.982              5.399
 Vibration     4          0.595              1.978              4.894
 Vibration     5          0.596              1.977              4.741
 Vibration     6          0.599              1.967              4.084
 Vibration     7          0.601              1.960              3.774
 Vibration     8          0.605              1.947              3.399
 Vibration     9          0.613              1.921              2.908
 Vibration    10          0.622              1.892              2.553
 Vibration    11          0.629              1.868              2.339
 Vibration    12          0.635              1.849              2.194
 Vibration    13          0.644              1.821              2.017
 Vibration    14          0.648              1.807              1.941
 Vibration    15          0.657              1.781              1.813
 Vibration    16          0.666              1.753              1.690
 Vibration    17          0.674              1.727              1.591
 Vibration    18          0.685              1.697              1.489
 Vibration    19          0.699              1.655              1.363
 Vibration    20          0.714              1.613              1.254
 Vibration    21          0.728              1.574              1.163
 Vibration    22          0.737              1.548              1.108
 Vibration    23          0.751              1.510              1.035
 Vibration    24          0.761              1.483              0.985
 Vibration    25          0.781              1.430              0.898
 Vibration    26          0.782              1.428              0.894
 Vibration    27          0.807              1.365              0.802
 Vibration    28          0.825              1.321              0.743
 Vibration    29          0.841              1.284              0.697
 Vibration    30          0.848              1.267              0.678
 Vibration    31          0.878              1.200              0.604
 Vibration    32          0.899              1.153              0.557
 Vibration    33          0.929              1.090              0.499
 Vibration    34          0.966              1.017              0.438
 Vibration    35          0.975              1.000              0.425

                           ! Non-Optimized Parameters !
 Normal termination of Gaussian 16 at Tue Sep 22 07:47:29 2020.

 ----------------------------------------------------------------------
 #p b3lyp/6-31G(d) scrf=(iefpcm,read,solvent=water) geom=allcheck guess
 =read
 ----------------------------------------------------------------------

 Structure from the checkpoint file:  "SM40.n.15.pdb.xyz.mst.n.w.chk"
 -----------------
 SM40.n.15.pdb.xyz
 -----------------
 Charge =  0 Multiplicity = 1

 SCF Done:  E(RB3LYP) =  -1714.06947211     A.U. after    7 cycles
 Normal termination of Gaussian 16 at Tue Sep 22 07:48:41 2020.

 -----------------------------
 #p B3LYP/6-31G* geom=allcheck
 -----------------------------

 Structure from the checkpoint file:  "SM40.n.15.pdb.xyz.mst.n.w.chk"
 -----------------
 SM40.n.15.pdb.xyz
 -----------------
 Charge =  0 Multiplicity = 1

 SCF Done:  E(RB3LYP) =  -1714.04036067     A.U. after   15 cycles
 Normal termination of Gaussian 16 at Tue Sep 22 07:50:08 2020.
 Gaussian 16:  ES64L-G16RevB.01 20-Dec-2017

 ----------------------------------------------------------------------
 #p mp2/aug-cc-pVDZ scf=(MaxCycle=2000,NoVarAcc,NoIncFock) maxdisk=120G
 B geom=allcheck
 ----------------------------------------------------------------------

 Structure from the checkpoint file:  "SM40.n.15.pdb.xyz.mst.n.w.chk"
 -----------------
 SM40.n.15.pdb.xyz
 -----------------
 Charge =  0 Multiplicity = 1

                         Standard orientation:
 ---------------------------------------------------------------------
 Center     Atomic      Atomic             Coordinates (Angstroms)
 Number     Number       Type             X           Y           Z
 ---------------------------------------------------------------------
      1          8           0       -3.156760    0.074500   -1.201837
      2         16           0       -2.515574   -1.154087   -0.710291
      3          7           0       -0.888349   -0.942815   -0.390783
      4          6           0       -0.300343    0.355805   -0.028927
      5          6           0       -1.043205    1.065404    1.148686
      6         16           0       -0.979234    2.640995    0.235230
      7          6           0       -0.469562    1.503179   -1.090962
      8          8           0       -2.294468    3.275952    0.027403
      9          8           0        0.141142    3.490651    0.692669
     10          6           0        1.174812    0.119494    0.340042
     11          6           0        2.046285   -0.477981   -0.778874
     12          6           0        3.500503   -0.568073   -0.369873
     13          6           0        4.002034   -1.724362    0.241771
     14          6           0        5.335874   -1.799238    0.646747
     15          6           0        6.191377   -0.714392    0.444255
     16          6           0        5.703594    0.442912   -0.166776
     17          6           0        4.369289    0.513063   -0.569400
     18          7           0       -3.107817   -1.390283    0.841980
     19          6           0       -4.564424   -1.199283    0.966318
     20          6           0       -2.612033   -2.610689    1.498403
     21          8           0       -2.580142   -2.362127   -1.546761
     22          1           0       -0.371489   -1.423553   -1.124691
     23          1           0       -0.514367    1.085649    2.100283
     24          1           0       -2.073326    0.739025    1.282560
     25          1           0        0.425019    1.819605   -1.626818
     26          1           0       -1.309246    1.334517   -1.761679
     27          1           0        1.203650   -0.532657    1.219170
     28          1           0        1.593081    1.085028    0.641943
     29          1           0        1.956652    0.136733   -1.681114
     30          1           0        1.687904   -1.480079   -1.034041
     31          1           0        3.342472   -2.573786    0.396627
     32          1           0        5.706716   -2.705102    1.115782
     33          1           0        7.229401   -0.771744    0.755214
     34          1           0        6.362274    1.289409   -0.334294
     35          1           0        3.997624    1.414245   -1.049078
     36          1           0       -4.848345   -0.266350    0.483961
     37          1           0       -4.789369   -1.134640    2.032076
     38          1           0       -5.133486   -2.030142    0.532633
     39          1           0       -1.528757   -2.657278    1.393913
     40          1           0       -3.064684   -3.517980    1.082635
     41          1           0       -2.865019   -2.536587    2.557261
 ---------------------------------------------------------------------

 SCF Done:  E(RHF) =  -1707.25178740     A.U. after   16 cycles
 E2 =    -0.3320371236D+01 EUMP2 =    -0.17105721586341D+04

 The electronic state is 1-A.
 Alpha  occ. eigenvalues --  -92.25971 -92.19654 -20.57738 -20.57723 -20.55606
 Alpha  occ. eigenvalues --  -20.55433 -15.63761 -15.63132 -11.34469 -11.29312
 Alpha  occ. eigenvalues --  -11.29277 -11.28885 -11.28848 -11.26844 -11.26710
 Alpha  occ. eigenvalues --  -11.26452 -11.25533 -11.25463 -11.25332 -11.25229
 Alpha  occ. eigenvalues --  -11.25143  -9.22489  -9.16916  -6.91039  -6.90992
 Alpha  occ. eigenvalues --   -6.90948  -6.85406  -6.85316  -6.85250  -1.48648
 Alpha  occ. eigenvalues --   -1.43724  -1.35639  -1.32430  -1.28426  -1.26497
 Alpha  occ. eigenvalues --   -1.17250  -1.15145  -1.09035  -1.02845  -1.02067
 Alpha  occ. eigenvalues --   -0.99642  -0.98574  -0.96981  -0.92689  -0.86097
 Alpha  occ. eigenvalues --   -0.84250  -0.82801  -0.81055  -0.78474  -0.74555
 Alpha  occ. eigenvalues --   -0.73337  -0.71247  -0.70875  -0.68549  -0.68154
 Alpha  occ. eigenvalues --   -0.67401  -0.66008  -0.65373  -0.64819  -0.63429
 Alpha  occ. eigenvalues --   -0.62643  -0.62470  -0.61326  -0.60530  -0.59756
 Alpha  occ. eigenvalues --   -0.59354  -0.59248  -0.58336  -0.57301  -0.55752
 Alpha  occ. eigenvalues --   -0.55571  -0.54173  -0.52927  -0.52135  -0.51082
 Alpha  occ. eigenvalues --   -0.50893  -0.50097  -0.49995  -0.49253  -0.48452
 Alpha  occ. eigenvalues --   -0.48304  -0.47369  -0.46075  -0.44875  -0.42385
 Alpha  occ. eigenvalues --   -0.41886  -0.34866  -0.34111
 Alpha virt. eigenvalues --    0.02204   0.02999   0.03559   0.03602   0.04197
 Alpha virt. eigenvalues --    0.04564   0.05277   0.05495   0.05660   0.06314
 Alpha virt. eigenvalues --    0.06549   0.07142   0.07733   0.07887   0.08179

 Mulliken charges:
               1
     1  O   -1.232312
     2  S    3.224734
     3  N   -1.290420
     4  C    0.704351
     5  C    0.244733
     6  S    2.977711
     7  C    0.307846
     8  O   -1.254927
     9  O   -1.287058
    10  C    0.301963
    11  C    0.784252
    12  C    1.190503
    13  C    0.572610
    14  C    0.038512
    15  C    0.642256
    16  C    0.068288
    17  C    0.383341
    18  N   -1.127103
    19  C    0.837534
    20  C    0.780683
    21  O   -1.183528
    22  H   -0.036171
    23  H   -0.281452
    24  H   -0.309122
    25  H   -0.335618
    26  H   -0.268919
    27  H   -0.237523
    28  H   -0.127324
    29  H   -0.278682
    30  H   -0.327473
    31  H   -0.673629
    32  H   -0.469042
    33  H   -0.434844
    34  H   -0.464970
    35  H   -0.669530
    36  H   -0.156241
    37  H   -0.150525
    38  H   -0.074261
    39  H   -0.187539
    40  H   -0.041351
    41  H   -0.159754
 Sum of Mulliken charges =  -0.00000

 Dipole moment (field-independent basis, Debye):
    X=              2.7533    Y=             -6.1464    Z=              2.8549  Tot=              7.3150
 Quadrupole moment (field-independent basis, Debye-Ang):
   XX=           -136.7401   YY=           -166.2478   ZZ=           -140.7007
   XY=             10.3399   XZ=            -14.8479   YZ=            -14.6836

 Normal termination of Gaussian 16 at Tue Sep 22 08:41:28 2020.
