 Gaussian 16, Revision B.01,

 ----------------------------------------------------------------------
 #p b3lyp/6-31G(d) opt freq NoSymm scf=(MaxCycle=2000,NoVarAcc,NoIncFoc
 k) scrf=(iefpcm,read,solvent=water)
 ----------------------------------------------------------------------

 ----------------
 SM40.b.3.pdb.xyz
 ----------------
 Symbolic Z-matrix:
 Charge =  1 Multiplicity = 1

 SCF Done:  E(RB3LYP) =  -1714.50399615     A.U. after   13 cycles
 SCF Done:  E(RB3LYP) =  -1714.50289910     A.U. after   11 cycles
 SCF Done:  E(RB3LYP) =  -1714.50315011     A.U. after   11 cycles
 SCF Done:  E(RB3LYP) =  -1714.50286689     A.U. after   11 cycles
 SCF Done:  E(RB3LYP) =  -1714.50336297     A.U. after   11 cycles
 SCF Done:  E(RB3LYP) =  -1714.50319312     A.U. after   11 cycles
 SCF Done:  E(RB3LYP) =  -1714.50349071     A.U. after   10 cycles
 SCF Done:  E(RB3LYP) =  -1714.50345629     A.U. after    9 cycles
 SCF Done:  E(RB3LYP) =  -1714.50341668     A.U. after   10 cycles
 SCF Done:  E(RB3LYP) =  -1714.50349311     A.U. after   10 cycles
 SCF Done:  E(RB3LYP) =  -1714.50394885     A.U. after    2 cycles
 SCF Done:  E(RB3LYP) =  -1714.50357671     A.U. after   10 cycles
 SCF Done:  E(RB3LYP) =  -1714.50359725     A.U. after    8 cycles
 SCF Done:  E(RB3LYP) =  -1714.50359623     A.U. after    8 cycles
 SCF Done:  E(RB3LYP) =  -1714.50359722     A.U. after    7 cycles
 SCF Done:  E(RB3LYP) =  -1714.50359726     A.U. after    6 cycles
 Optimization completed.
    -- Stationary point found.
 Normal termination of Gaussian 16 at Thu Sep 24 02:42:32 2020.

 --------------------------------------------------------------------
 #P Geom=AllCheck Guess=TCheck SCRF=Check GenChk RB3LYP/6-31G(d) Freq
 --------------------------------------------------------------------

 Structure from the checkpoint file:  "SM40.b.3.pdb.xyz.mst.b.w.chk"
 ----------------
 SM40.b.3.pdb.xyz
 ----------------
 Charge =  1 Multiplicity = 1

 SCF Done:  E(RB3LYP) =  -1714.50359726     A.U. after    1 cycles

  Exact polarizability: 265.476  28.779 241.111 -21.017  20.486 238.230
 Approx polarizability: 284.840  34.017 278.827 -17.187  24.185 279.134

                      1                      2                      3
                      A                      A                      A
 Frequencies --     24.3723                40.0137                47.2707
 Red. masses --      5.2100                 6.7620                 4.2307
 Frc consts  --      0.0018                 0.0064                 0.0056
 IR Inten    --      0.3222                 5.6943                 1.5208

                      4                      5                      6
                      A                      A                      A
 Frequencies --     48.7697                63.0371                80.5300
 Red. masses --      6.1648                 3.4525                 3.8872
 Frc consts  --      0.0086                 0.0081                 0.0149
 IR Inten    --      2.2666                 1.5579                 2.3857

                      7                      8                      9
                      A                      A                      A
 Frequencies --     93.6227               125.7698               140.3275
 Red. masses --      5.1938                 4.3907                 5.8079
 Frc consts  --      0.0268                 0.0409                 0.0674
 IR Inten    --     17.9223                 0.9575                 3.2664

                     10                     11                     12
                      A                      A                      A
 Frequencies --    159.2630               183.7017               185.9681
 Red. masses --      3.3325                 1.3258                 5.8487
 Frc consts  --      0.0498                 0.0264                 0.1192
 IR Inten    --      0.9057                 1.0176                 5.6298

                     13                     14                     15
                      A                      A                      A
 Frequencies --    211.5867               219.3290               246.5445
 Red. masses --      2.5989                 2.0835                 2.5877
 Frc consts  --      0.0686                 0.0591                 0.0927
 IR Inten    --     12.6055                 6.1508                 0.3782

                     16                     17                     18
                      A                      A                      A
 Frequencies --    274.9941               275.7979               293.2161
 Red. masses --      3.9460                 3.5786                 3.3802
 Frc consts  --      0.1758                 0.1604                 0.1712
 IR Inten    --     10.7785                 7.4761                 5.5470

                     19                     20                     21
                      A                      A                      A
 Frequencies --    314.5857               326.8221               340.2071
 Red. masses --      3.0512                 5.2189                 2.7240
 Frc consts  --      0.1779                 0.3284                 0.1858
 IR Inten    --      4.9153                38.1716                 1.3501

                     22                     23                     24
                      A                      A                      A
 Frequencies --    353.4838               368.1561               387.2470
 Red. masses --      5.2847                 2.3975                 2.6124
 Frc consts  --      0.3891                 0.1915                 0.2308
 IR Inten    --     10.4379                 1.7600                 2.9418

                     25                     26                     27
                      A                      A                      A
 Frequencies --    417.2381               428.5325               435.4082
 Red. masses --      2.3057                 3.3972                 2.4420
 Frc consts  --      0.2365                 0.3676                 0.2728
 IR Inten    --     31.4106                54.3576                23.5483

                     28                     29                     30
                      A                      A                      A
 Frequencies --    445.7770               465.0494               490.6051
 Red. masses --      3.2482                 3.2527                 2.6710
 Frc consts  --      0.3803                 0.4145                 0.3788
 IR Inten    --      5.2844                61.6356               102.2601

                     31                     32                     33
                      A                      A                      A
 Frequencies --    501.5466               525.7141               564.9705
 Red. masses --      4.1694                 3.9914                 4.0991
 Frc consts  --      0.6179                 0.6499                 0.7709
 IR Inten    --     27.7520                 7.6384                18.3528

                     34                     35                     36
                      A                      A                      A
 Frequencies --    591.2922               603.7595               614.6614
 Red. masses --      4.4851                 4.6524                 4.5409
 Frc consts  --      0.9239                 0.9992                 1.0108
 IR Inten    --    163.6455               203.2700                40.4142

                     37                     38                     39
                      A                      A                      A
 Frequencies --    635.4022               721.1244               725.7927
 Red. masses --      6.2754                 2.1729                 3.0388
 Frc consts  --      1.4928                 0.6658                 0.9431
 IR Inten    --      0.4028                30.8911                 7.5752

                     40                     41                     42
                      A                      A                      A
 Frequencies --    751.3013               757.0579               774.2663
 Red. masses --      6.1510                 1.7702                 2.8413
 Frc consts  --      2.0456                 0.5978                 1.0036
 IR Inten    --     87.9635                50.5628                 4.9934

                     43                     44                     45
                      A                      A                      A
 Frequencies --    792.0311               828.6768               864.1693
 Red. masses --      2.7991                 1.5592                 3.3905
 Frc consts  --      1.0346                 0.6308                 1.4918
 IR Inten    --      4.0022                 1.3520                87.9504

                     46                     47                     48
                      A                      A                      A
 Frequencies --    869.8973               874.6730               889.0131
 Red. masses --      3.3426                 1.2513                 2.4723
 Frc consts  --      1.4903                 0.5640                 1.1513
 IR Inten    --     15.2217                 0.3229                19.1840

                     49                     50                     51
                      A                      A                      A
 Frequencies --    933.0071               947.4479               982.5484
 Red. masses --      2.1344                 1.7559                 2.0204
 Frc consts  --      1.0947                 0.9287                 1.1492
 IR Inten    --     54.7273                18.5191                38.9636

                     52                     53                     54
                      A                      A                      A
 Frequencies --    986.3943              1007.4257              1008.5916
 Red. masses --      1.3933                 1.7875                 1.5880
 Frc consts  --      0.7988                 1.0689                 0.9518
 IR Inten    --      4.4273                34.7739                34.4053

                     55                     56                     57
                      A                      A                      A
 Frequencies --   1013.8916              1017.1103              1039.3183
 Red. masses --      2.4796                 5.7568                 1.9075
 Frc consts  --      1.5018                 3.5088                 1.2140
 IR Inten    --     29.4200                 3.9085                33.0627

                     58                     59                     60
                      A                      A                      A
 Frequencies --   1060.2294              1066.1445              1076.6456
 Red. masses --      2.0541                 1.8711                 1.4476
 Frc consts  --      1.3604                 1.2531                 0.9886
 IR Inten    --      3.6126                 7.0236                79.5554

                     61                     62                     63
                      A                      A                      A
 Frequencies --   1080.6028              1091.3170              1114.8662
 Red. masses --      2.5885                 1.4436                 1.9667
 Frc consts  --      1.7809                 1.0130                 1.4403
 IR Inten    --    241.0928                43.5816                26.0317

                     64                     65                     66
                      A                      A                      A
 Frequencies --   1143.6163              1149.1137              1158.5716
 Red. masses --      7.5445                 2.3446                 1.7221
 Frc consts  --      5.8135                 1.8241                 1.3620
 IR Inten    --    252.7664                48.2062                 1.8522

                     67                     68                     69
                      A                      A                      A
 Frequencies --   1179.3943              1185.7046              1211.7346
 Red. masses --      1.0843                 1.4749                 1.4136
 Frc consts  --      0.8886                 1.2217                 1.2229
 IR Inten    --      0.3001                50.8635                20.6087

                     70                     71                     72
                      A                      A                      A
 Frequencies --   1216.6107              1232.8194              1242.4636
 Red. masses --      1.2486                 1.7128                 1.6536
 Frc consts  --      1.0889                 1.5338                 1.5040
 IR Inten    --      1.8570                13.0914                 8.9946

                     73                     74                     75
                      A                      A                      A
 Frequencies --   1250.9508              1257.3577              1271.1637
 Red. masses --      2.2187                 1.6173                 2.3767
 Frc consts  --      2.0456                 1.5065                 2.2627
 IR Inten    --     22.9874                 0.9399               191.5810

                     76                     77                     78
                      A                      A                      A
 Frequencies --   1291.8338              1306.4059              1352.7517
 Red. masses --      1.9214                 1.5495                 5.5586
 Frc consts  --      1.8892                 1.5581                 5.9932
 IR Inten    --    149.9336                75.4868               271.9152

                     79                     80                     81
                      A                      A                      A
 Frequencies --   1357.3056              1374.2772              1399.9615
 Red. masses --      4.2374                 1.4000                 1.4187
 Frc consts  --      4.5995                 1.5578                 1.6383
 IR Inten    --     37.1509                 6.2907                21.6478

                     82                     83                     84
                      A                      A                      A
 Frequencies --   1409.0174              1448.0205              1457.6438
 Red. masses --      1.3428                 1.1325                 1.1414
 Frc consts  --      1.5707                 1.3991                 1.4288
 IR Inten    --     32.5543                10.6681                35.2088

                     85                     86                     87
                      A                      A                      A
 Frequencies --   1458.6002              1467.4812              1473.8145
 Red. masses --      1.1260                 1.1853                 1.1145
 Frc consts  --      1.4114                 1.5039                 1.4263
 IR Inten    --     13.9650                55.5918                39.8252

                     88                     89                     90
                      A                      A                      A
 Frequencies --   1476.1179              1484.3675              1493.2846
 Red. masses --      1.1666                 1.2669                 1.1042
 Frc consts  --      1.4976                 1.6447                 1.4507
 IR Inten    --     16.8154               118.4876                 8.3447

                     91                     92                     93
                      A                      A                      A
 Frequencies --   1499.7966              1500.7180              1509.3777
 Red. masses --      1.1196                 1.8250                 1.0366
 Frc consts  --      1.4838                 2.4217                 1.3914
 IR Inten    --     23.2142                 3.2056                11.9069

                     94                     95                     96
                      A                      A                      A
 Frequencies --   1518.8549              1527.3783              1533.3740
 Red. masses --      1.0471                 1.0924                 1.0545
 Frc consts  --      1.4233                 1.5015                 1.4609
 IR Inten    --     31.0960                24.5655                77.3672

                     97                     98                     99
                      A                      A                      A
 Frequencies --   1548.1852              1641.9554              1663.8716
 Red. masses --      2.1905                 5.4780                 5.5161
 Frc consts  --      3.0934                 8.7016                 8.9976
 IR Inten    --     12.8661                 1.7896                 6.2454

                    100                    101                    102
                      A                      A                      A
 Frequencies --   3065.5141              3079.8409              3098.6725
 Red. masses --      1.0616                 1.0629                 1.1014
 Frc consts  --      5.8778                 5.9400                 6.2306
 IR Inten    --     41.7047                26.9679                40.3833

                    103                    104                    105
                      A                      A                      A
 Frequencies --   3127.4975              3128.0450              3132.5442
 Red. masses --      1.1039                 1.0295                 1.0299
 Frc consts  --      6.3618                 5.9348                 5.9542
 IR Inten    --     26.5718                 3.8851                 5.3687

                    106                    107                    108
                      A                      A                      A
 Frequencies --   3152.0675              3159.0969              3192.8631
 Red. masses --      1.0572                 1.0577                 1.0863
 Frc consts  --      6.1885                 6.2195                 6.5248
 IR Inten    --      0.7871                 7.0572                16.4305

                    109                    110                    111
                      A                      A                      A
 Frequencies --   3194.1889              3203.0622              3213.7478
 Red. masses --      1.0876                 1.0900                 1.0941
 Frc consts  --      6.5376                 6.5889                 6.6577
 IR Inten    --     10.0129                22.9147                63.9534

                    112                    113                    114
                      A                      A                      A
 Frequencies --   3223.7072              3224.2176              3225.3876
 Red. masses --      1.1081                 1.0974                 1.1111
 Frc consts  --      6.7851                 6.7212                 6.8104
 IR Inten    --      0.7452                28.2532                 0.8109

                    115                    116                    117
                      A                      A                      A
 Frequencies --   3230.8983              3237.9834              3238.3216
 Red. masses --      1.1092                 1.1122                 1.1100
 Frc consts  --      6.8217                 6.8702                 6.8584
 IR Inten    --      1.6922                10.5352                 1.4922

                    118                    119                    120
                      A                      A                      A
 Frequencies --   3240.9770              3410.6109              3527.0741
 Red. masses --      1.1092                 1.0778                 1.0765
 Frc consts  --      6.8645                 7.3865                 7.8905
 IR Inten    --      0.6280               243.0923               254.5508

 - Thermochemistry -
 -------------------
 Temperature   298.150 Kelvin.  Pressure   1.00000 Atm.
 Atom     1 has atomic number  8 and mass  15.99491

 Molecular mass:   333.09428 amu.
 Principal axes and moments of inertia in atomic units:
                           1         2         3
     Eigenvalues --  5058.090739333.34241**********
           X            0.99854  -0.05256  -0.01223
           Y            0.05235   0.99849  -0.01662
           Z            0.01309   0.01596   0.99979
 This molecule is an asymmetric top.
 Rotational symmetry number  1.
 Warning -- assumption of classical behavior for rotation
           may cause significant error
 Rotational temperatures (Kelvin)      0.01712     0.00928     0.00728
 Rotational constants (GHZ):           0.35680     0.19336     0.15177
 Zero-point vibrational energy     913937.0 (Joules/Mol)
                                  218.43618 (Kcal/Mol)
 Warning -- explicit consideration of  36 degrees of freedom as
           vibrations may cause significant error
 Vibrational temperatures:     35.07    57.57    68.01    70.17    90.70
          (Kelvin)            115.86   134.70   180.95   201.90   229.14
                              264.31   267.57   304.43   315.57   354.72
                              395.66   396.81   421.87   452.62   470.22
                              489.48   508.58   529.69   557.16   600.31
                              616.56   626.46   641.37   669.10   705.87
                              721.61   756.39   812.87   850.74   868.68
                              884.36   914.20  1037.54  1044.25  1080.95
                             1089.24  1114.00  1139.56  1192.28  1243.35
                             1251.59  1258.46  1279.09  1342.39  1363.17
                             1413.67  1419.20  1449.46  1451.14  1458.76
                             1463.39  1495.35  1525.43  1533.94  1549.05
                             1554.75  1570.16  1604.04  1645.41  1653.32
                             1666.93  1696.89  1705.96  1743.42  1750.43
                             1773.75  1787.63  1799.84  1809.06  1828.92
                             1858.66  1879.63  1946.31  1952.86  1977.28
                             2014.23  2027.26  2083.38  2097.22  2098.60
                             2111.38  2120.49  2123.80  2135.67  2148.50
                             2157.87  2159.20  2171.66  2185.29  2197.56
                             2206.18  2227.49  2362.41  2393.94  4410.59
                             4431.20  4458.30  4499.77  4500.56  4507.03
                             4535.12  4545.24  4593.82  4595.73  4608.49
                             4623.87  4638.20  4638.93  4640.61  4648.54
                             4658.74  4659.22  4663.04  4907.11  5074.67

 Zero-point correction=                           0.348100 (Hartree/Particle)
 Thermal correction to Energy=                    0.369450
 Thermal correction to Enthalpy=                  0.370395
 Thermal correction to Gibbs Free Energy=         0.297135
 Sum of electronic and zero-point Energies=          -1714.155497
 Sum of electronic and thermal Energies=             -1714.134147
 Sum of electronic and thermal Enthalpies=           -1714.133203
 Sum of electronic and thermal Free Energies=        -1714.206462

                     E (Thermal)             CV                S
                      KCal/Mol        Cal/Mol-Kelvin    Cal/Mol-Kelvin
 Total                  231.834             81.920            154.188
 Electronic               0.000              0.000              0.000
 Translational            0.889              2.981             43.305
 Rotational               0.889              2.981             34.683
 Vibrational            230.056             75.958             76.200
 Vibration     1          0.593              1.985              6.242
 Vibration     2          0.594              1.981              5.258
 Vibration     3          0.595              1.979              4.928
 Vibration     4          0.595              1.978              4.867
 Vibration     5          0.597              1.972              4.360
 Vibration     6          0.600              1.962              3.878
 Vibration     7          0.603              1.954              3.583
 Vibration     8          0.611              1.927              3.010
 Vibration     9          0.615              1.913              2.799
 Vibration    10          0.621              1.892              2.559
 Vibration    11          0.631              1.862              2.290
 Vibration    12          0.632              1.859              2.268
 Vibration    13          0.643              1.823              2.030
 Vibration    14          0.647              1.812              1.965
 Vibration    15          0.661              1.769              1.755
 Vibration    16          0.677              1.720              1.565
 Vibration    17          0.677              1.718              1.560
 Vibration    18          0.688              1.686              1.455
 Vibration    19          0.702              1.646              1.338
 Vibration    20          0.710              1.622              1.276
 Vibration    21          0.720              1.595              1.211
 Vibration    22          0.730              1.568              1.151
 Vibration    23          0.741              1.538              1.087
 Vibration    24          0.756              1.497              1.011
 Vibration    25          0.780              1.433              0.901
 Vibration    26          0.790              1.408              0.863
 Vibration    27          0.796              1.393              0.841
 Vibration    28          0.805              1.370              0.809
 Vibration    29          0.822              1.328              0.752
 Vibration    30          0.846              1.271              0.682
 Vibration    31          0.857              1.247              0.654
 Vibration    32          0.881              1.193              0.597
 Vibration    33          0.921              1.107              0.514
 Vibration    34          0.949              1.050              0.465
 Vibration    35          0.962              1.024              0.443
 Vibration    36          0.974              1.001              0.425

                           ! Non-Optimized Parameters !
 Normal termination of Gaussian 16 at Thu Sep 24 03:05:06 2020.

 ----------------------------------------------------------------------
 #p b3lyp/6-31G(d) scrf=(iefpcm,read,solvent=water) geom=allcheck guess
 =read
 ----------------------------------------------------------------------

 Structure from the checkpoint file:  "SM40.b.3.pdb.xyz.mst.b.w.chk"
 ----------------
 SM40.b.3.pdb.xyz
 ----------------
 Charge =  1 Multiplicity = 1

 SCF Done:  E(RB3LYP) =  -1714.50336994     A.U. after    7 cycles
 Normal termination of Gaussian 16 at Thu Sep 24 03:06:12 2020.

 -----------------------------
 #p B3LYP/6-31G* geom=allcheck
 -----------------------------

 Structure from the checkpoint file:  "SM40.b.3.pdb.xyz.mst.b.w.chk"
 ----------------
 SM40.b.3.pdb.xyz
 ----------------
 Charge =  1 Multiplicity = 1

 SCF Done:  E(RB3LYP) =  -1714.38101516     A.U. after   16 cycles

 The electronic state is 1-A.
 Alpha  occ. eigenvalues --  -89.32746 -89.19705 -19.35019 -19.34996 -19.24620
 Alpha  occ. eigenvalues --  -19.24512 -14.64919 -14.56756 -10.42116 -10.42006
 Alpha  occ. eigenvalues --  -10.41390 -10.35584 -10.34077 -10.33413 -10.31951
 Alpha  occ. eigenvalues --  -10.30151 -10.29159 -10.28665 -10.28611 -10.28459
 Alpha  occ. eigenvalues --  -10.28252  -8.35146  -8.22719  -6.31660  -6.31537
 Alpha  occ. eigenvalues --   -6.31487  -6.19109  -6.19091  -6.19032  -1.32593
 Alpha  occ. eigenvalues --   -1.21156  -1.19844  -1.18167  -1.12804  -1.09308
 Alpha  occ. eigenvalues --   -0.99746  -0.95743  -0.93134  -0.91409  -0.89213
 Alpha  occ. eigenvalues --   -0.85909  -0.84526  -0.84147  -0.83194  -0.79702
 Alpha  occ. eigenvalues --   -0.76894  -0.75451  -0.72441  -0.70484  -0.70118
 Alpha  occ. eigenvalues --   -0.69631  -0.68554  -0.67276  -0.65543  -0.63502
 Alpha  occ. eigenvalues --   -0.62519  -0.61480  -0.61115  -0.60935  -0.60286
 Alpha  occ. eigenvalues --   -0.59646  -0.58773  -0.58328  -0.58197  -0.56226
 Alpha  occ. eigenvalues --   -0.55640  -0.54794  -0.54453  -0.53794  -0.52984
 Alpha  occ. eigenvalues --   -0.52534  -0.52161  -0.51594  -0.51562  -0.50611
 Alpha  occ. eigenvalues --   -0.49935  -0.49203  -0.48404  -0.46137  -0.44922
 Alpha  occ. eigenvalues --   -0.43877  -0.43617  -0.42299  -0.41163  -0.39618
 Alpha  occ. eigenvalues --   -0.39289  -0.34808  -0.34208
 Alpha virt. eigenvalues --   -0.19135  -0.14761  -0.11523  -0.10952  -0.10633
 Alpha virt. eigenvalues --   -0.10029  -0.09570  -0.08220  -0.06938  -0.06385
 Alpha virt. eigenvalues --   -0.05085  -0.04860  -0.04124  -0.03533  -0.02805

 Mulliken charges:
               1
     1  O   -0.475443
     2  S    1.368569
     3  N   -0.739382
     4  C    0.188030
     5  C   -0.520269
     6  S    1.141487
     7  C   -0.502777
     8  O   -0.483267
     9  O   -0.502721
    10  C   -0.310853
    11  C   -0.388629
    12  C    0.171133
    13  C   -0.194663
    14  C   -0.123647
    15  C   -0.127574
    16  C   -0.123855
    17  C   -0.198012
    18  N   -0.611223
    19  C   -0.370709
    20  C   -0.366541
    21  O   -0.465718
    22  H    0.398074
    23  H    0.233108
    24  H    0.200976
    25  H    0.258219
    26  H    0.232100
    27  H    0.159859
    28  H    0.217670
    29  H    0.133284
    30  H    0.197217
    31  H    0.148616
    32  H    0.163709
    33  H    0.161570
    34  H    0.153988
    35  H    0.107865
    36  H    0.257020
    37  H    0.232242
    38  H    0.251939
    39  H    0.220694
    40  H    0.256513
    41  H    0.236214
    42  H    0.415184
 Sum of Mulliken charges =   1.00000

 Dipole moment (field-independent basis, Debye):
    X=            -12.2559    Y=             -7.2245    Z=              5.7848  Tot=             15.3579
 Quadrupole moment (field-independent basis, Debye-Ang):
   XX=            -57.2445   YY=           -146.9950   ZZ=           -127.0823
   XY=              6.2604   XZ=            -15.8433   YZ=              3.5843

 Normal termination of Gaussian 16 at Thu Sep 24 03:07:33 2020.
 Gaussian 16:  ES64L-G16RevB.01 20-Dec-2017

 ----------------------------------------------------------------------
 #p mp2/aug-cc-pVDZ scf=(MaxCycle=2000,NoVarAcc,NoIncFock) maxdisk=120G
 B geom=allcheck
 ----------------------------------------------------------------------

 Structure from the checkpoint file:  "SM40.b.3.pdb.xyz.mst.b.w.chk"
 ----------------
 SM40.b.3.pdb.xyz
 ----------------
 Charge =  1 Multiplicity = 1

                         Standard orientation:
 ---------------------------------------------------------------------
 Center     Atomic      Atomic             Coordinates (Angstroms)
 Number     Number       Type             X           Y           Z
 ---------------------------------------------------------------------
      1          8           0       -2.196279    0.450547   -1.427426
      2         16           0       -2.111218   -0.755049   -0.619754
      3          7           0       -0.940798   -0.626889    0.493451
      4          6           0       -0.043415    0.535404    0.687457
      5          6           0       -0.787393    1.892415    0.918627
      6         16           0        0.373198    2.710848   -0.235224
      7          6           0        0.761188    0.963833   -0.589545
      8          8           0       -0.285130    3.426662   -1.342355
      9          8           0        1.474652    3.381709    0.484722
     10          6           0        0.858466    0.236595    1.903134
     11          6           0        1.689916   -1.064289    1.912878
     12          6           0        2.669900   -1.250177    0.773427
     13          6           0        3.829795   -0.465745    0.685179
     14          6           0        4.728295   -0.635465   -0.368474
     15          6           0        4.485535   -1.599799   -1.350589
     16          6           0        3.340986   -2.393498   -1.267356
     17          6           0        2.443118   -2.218538   -0.212130
     18          7           0       -3.669839   -0.681585    0.415859
     19          6           0       -4.859161   -0.605021   -0.494794
     20          6           0       -3.736948   -1.824326    1.377178
     21          8           0       -2.173994   -2.099563   -1.164712
     22          1           0       -0.573248   -1.541672    0.758228
     23          1           0       -0.757187    2.280009    1.935392
     24          1           0       -1.793534    1.943452    0.505113
     25          1           0        1.821804    0.728193   -0.596518
     26          1           0        0.276743    0.674426   -1.520074
     27          1           0        0.220286    0.239691    2.791328
     28          1           0        1.529025    1.095638    1.998035
     29          1           0        1.032429   -1.938226    1.967996
     30          1           0        2.234544   -1.055175    2.863009
     31          1           0        4.031694    0.281372    1.447391
     32          1           0        5.620684   -0.019922   -0.419553
     33          1           0        5.185424   -1.733793   -2.168788
     34          1           0        3.146176   -3.150162   -2.019950
     35          1           0        1.555644   -2.842966   -0.150320
     36          1           0       -4.733824    0.252436   -1.150421
     37          1           0       -5.740499   -0.479768    0.130874
     38          1           0       -4.922704   -1.529681   -1.065044
     39          1           0       -2.870916   -1.779641    2.033112
     40          1           0       -3.756648   -2.754225    0.813727
     41          1           0       -4.649825   -1.708475    1.958773
     42          1           0       -3.608978    0.201854    0.950381
 ---------------------------------------------------------------------

 SCF Done:  E(RHF) =  -1707.58208424     A.U. after   16 cycles
