 Gaussian 16, Revision B.01,

 ----------------------------------------------------------------------
 #p b3lyp/6-31G(d) opt freq NoSymm scf=(MaxCycle=2000,NoVarAcc,NoIncFoc
 k) scrf=(iefpcm,read,solvent=water)
 ----------------------------------------------------------------------

 ----------------
 SM40.n.3.pdb.xyz
 ----------------
 Symbolic Z-matrix:
 Charge =  0 Multiplicity = 1

 SCF Done:  E(RB3LYP) =  -1714.06710930     A.U. after   13 cycles
 SCF Done:  E(RB3LYP) =  -1714.06716734     A.U. after   11 cycles
 SCF Done:  E(RB3LYP) =  -1714.06728175     A.U. after   10 cycles
 SCF Done:  E(RB3LYP) =  -1714.06734216     A.U. after    9 cycles
 SCF Done:  E(RB3LYP) =  -1714.06732032     A.U. after    9 cycles
 SCF Done:  E(RB3LYP) =  -1714.06735456     A.U. after    9 cycles
 SCF Done:  E(RB3LYP) =  -1714.06734392     A.U. after    8 cycles
 SCF Done:  E(RB3LYP) =  -1714.06734128     A.U. after    7 cycles
 SCF Done:  E(RB3LYP) =  -1714.06734646     A.U. after    7 cycles
 SCF Done:  E(RB3LYP) =  -1714.06734680     A.U. after    8 cycles
 SCF Done:  E(RB3LYP) =  -1714.06734692     A.U. after    7 cycles
 Optimization completed.
    -- Stationary point found.
 Normal termination of Gaussian 16 at Tue Sep 22 06:37:21 2020.

 --------------------------------------------------------------------
 #P Geom=AllCheck Guess=TCheck SCRF=Check GenChk RB3LYP/6-31G(d) Freq
 --------------------------------------------------------------------

 Structure from the checkpoint file:  "SM40.n.3.pdb.xyz.mst.n.w.chk"
 ----------------
 SM40.n.3.pdb.xyz
 ----------------
 Charge =  0 Multiplicity = 1

 SCF Done:  E(RB3LYP) =  -1714.06734692     A.U. after    1 cycles

  Exact polarizability: 263.492  25.582 241.701 -23.462  18.729 240.222
 Approx polarizability: 279.718  31.858 279.184 -20.393  22.233 281.106

                      1                      2                      3
                      A                      A                      A
 Frequencies --     25.0499                35.5458                43.4653
 Red. masses --      5.2099                 5.1404                 6.9852
 Frc consts  --      0.0019                 0.0038                 0.0078
 IR Inten    --      0.1907                 1.7145                 2.3187

                      4                      5                      6
                      A                      A                      A
 Frequencies --     54.7164                60.8260                72.1530
 Red. masses --      5.6311                 3.6879                 3.7018
 Frc consts  --      0.0099                 0.0080                 0.0114
 IR Inten    --      3.6733                 0.8268                 4.3237

                      7                      8                      9
                      A                      A                      A
 Frequencies --     79.1973               113.1816               140.4966
 Red. masses --      3.8956                 4.1507                 7.2970
 Frc consts  --      0.0144                 0.0313                 0.0849
 IR Inten    --      5.0459                 0.6289                 0.6668

                     10                     11                     12
                      A                      A                      A
 Frequencies --    161.6535               178.7633               196.2275
 Red. masses --      5.8476                 3.7494                 1.9298
 Frc consts  --      0.0900                 0.0706                 0.0438
 IR Inten    --      7.7279                13.7612                 4.5186

                     13                     14                     15
                      A                      A                      A
 Frequencies --    209.5760               227.4339               247.2598
 Red. masses --      1.1210                 2.0805                 3.8528
 Frc consts  --      0.0290                 0.0634                 0.1388
 IR Inten    --      1.1815                15.4373                 3.3875

                     16                     17                     18
                      A                      A                      A
 Frequencies --    265.2924               269.5904               305.6369
 Red. masses --      7.0866                 3.2956                 3.0521
 Frc consts  --      0.2939                 0.1411                 0.1680
 IR Inten    --      5.8443                 3.8030                 5.5839

                     19                     20                     21
                      A                      A                      A
 Frequencies --    311.4794               334.5841               347.6173
 Red. masses --      3.1048                 2.8647                 2.3247
 Frc consts  --      0.1775                 0.1889                 0.1655
 IR Inten    --      4.7490                 2.4532                 3.1231

                     22                     23                     24
                      A                      A                      A
 Frequencies --    359.7140               385.2067               398.0929
 Red. masses --      2.6793                 3.2366                 4.8191
 Frc consts  --      0.2043                 0.2830                 0.4500
 IR Inten    --      6.2850                12.8651                23.7336

                     25                     26                     27
                      A                      A                      A
 Frequencies --    423.4086               435.8196               437.8976
 Red. masses --      3.0377                 3.8032                 2.9424
 Frc consts  --      0.3209                 0.4256                 0.3324
 IR Inten    --      2.8307                20.5095                28.6937

                     28                     29                     30
                      A                      A                      A
 Frequencies --    467.8353               483.6389               493.2418
 Red. masses --      5.2451                 3.7685                 3.7608
 Frc consts  --      0.6764                 0.5194                 0.5391
 IR Inten    --     27.2609                11.9130                46.9250

                     31                     32                     33
                      A                      A                      A
 Frequencies --    515.0985               547.8984               564.6984
 Red. masses --      3.1751                 3.0399                 4.1854
 Frc consts  --      0.4964                 0.5377                 0.7864
 IR Inten    --     26.1504               141.8940                25.6268

                     34                     35                     36
                      A                      A                      A
 Frequencies --    590.6180               609.7697               634.1473
 Red. masses --      4.1262                 4.1473                 6.3190
 Frc consts  --      0.8480                 0.9085                 1.4972
 IR Inten    --    117.7550                35.2829                 0.2550

                     37                     38                     39
                      A                      A                      A
 Frequencies --    666.9147               722.1255               724.0413
 Red. masses --      6.0484                 2.2632                 2.8812
 Frc consts  --      1.5850                 0.6953                 0.8899
 IR Inten    --    149.4461                27.4353                 8.8438

                     40                     41                     42
                      A                      A                      A
 Frequencies --    754.9782               759.6750               777.0058
 Red. masses --      4.3588                 1.8503                 2.9051
 Frc consts  --      1.4638                 0.6291                 1.0334
 IR Inten    --     76.8463                70.5312                 9.7495

                     43                     44                     45
                      A                      A                      A
 Frequencies --    794.1893               822.8032               856.5279
 Red. masses --      2.8093                 1.6377                 3.2049
 Frc consts  --      1.0440                 0.6532                 1.3853
 IR Inten    --      5.3063                22.8478               106.9013

                     46                     47                     48
                      A                      A                      A
 Frequencies --    873.0555               878.3537               924.3710
 Red. masses --      1.3211                 2.3456                 2.1379
 Frc consts  --      0.5933                 1.0662                 1.0763
 IR Inten    --      2.6648                18.7272                46.1805

                     49                     50                     51
                      A                      A                      A
 Frequencies --    940.8348               947.9490               973.3009
 Red. masses --      3.2932                 1.6068                 1.9984
 Frc consts  --      1.7175                 0.8507                 1.1154
 IR Inten    --    236.8178                13.6076                29.0161

                     52                     53                     54
                      A                      A                      A
 Frequencies --    986.4495              1005.4229              1010.4196
 Red. masses --      1.3463                 2.1720                 1.2609
 Frc consts  --      0.7719                 1.2936                 0.7585
 IR Inten    --      1.6053                45.2761                 2.1109

                     55                     56                     57
                      A                      A                      A
 Frequencies --   1016.1217              1032.9457              1052.7450
 Red. masses --      5.8978                 1.9611                 1.3424
 Frc consts  --      3.5878                 1.2328                 0.8765
 IR Inten    --      1.2136                34.0731                 9.1439

                     58                     59                     60
                      A                      A                      A
 Frequencies --   1057.5833              1068.5599              1075.1503
 Red. masses --      1.9776                 1.6423                 2.5413
 Frc consts  --      1.3032                 1.1049                 1.7308
 IR Inten    --      8.8789                22.7970               177.5450

                     61                     62                     63
                      A                      A                      A
 Frequencies --   1082.7913              1099.7602              1106.9081
 Red. masses --      3.1017                 9.2097                 1.9726
 Frc consts  --      2.1426                 6.5628                 1.4240
 IR Inten    --    147.0407               244.4014                38.8509

                     64                     65                     66
                      A                      A                      A
 Frequencies --   1134.1143              1149.3360              1182.6328
 Red. masses --      1.2280                 2.1665                 1.3918
 Frc consts  --      0.9306                 1.6862                 1.1469
 IR Inten    --      2.1513                55.9264                 5.5393

                     67                     68                     69
                      A                      A                      A
 Frequencies --   1185.7289              1195.0682              1202.6111
 Red. masses --      1.0927                 1.3207                 1.3819
 Frc consts  --      0.9051                 1.1114                 1.1775
 IR Inten    --      0.2215                 7.7043                36.0330

                     70                     71                     72
                      A                      A                      A
 Frequencies --   1209.8517              1216.0362              1231.7662
 Red. masses --      1.3224                 3.2391                 2.2519
 Frc consts  --      1.1404                 2.8221                 2.0130
 IR Inten    --     24.4753                35.1321                 5.6794

                     73                     74                     75
                      A                      A                      A
 Frequencies --   1251.3094              1264.3570              1274.1270
 Red. masses --      1.9998                 4.1813                 3.7991
 Frc consts  --      1.8449                 3.9382                 3.6337
 IR Inten    --      3.6226               311.7520               363.9954

                     76                     77                     78
                      A                      A                      A
 Frequencies --   1280.7323              1287.6669              1307.2240
 Red. masses --      2.1697                 2.8175                 1.4028
 Frc consts  --      2.0969                 2.7525                 1.4124
 IR Inten    --     96.4393                72.5258                36.5126

                     79                     80                     81
                      A                      A                      A
 Frequencies --   1355.5361              1367.4041              1384.8315
 Red. masses --      3.3288                 1.5137                 1.3894
 Frc consts  --      3.6038                 1.6676                 1.5698
 IR Inten    --      1.9390                 0.7984                 9.2065

                     82                     83                     84
                      A                      A                      A
 Frequencies --   1408.8039              1457.0908              1458.3899
 Red. masses --      1.3804                 1.0973                 1.1340
 Frc consts  --      1.6142                 1.3726                 1.4210
 IR Inten    --     21.1598                27.8034                 2.7853

                     85                     86                     87
                      A                      A                      A
 Frequencies --   1474.4134              1476.8722              1484.0007
 Red. masses --      1.1518                 1.1068                 1.1586
 Frc consts  --      1.4752                 1.4223                 1.5033
 IR Inten    --      3.1118                27.4440                45.3786

                     88                     89                     90
                      A                      A                      A
 Frequencies --   1497.4447              1503.0428              1507.2424
 Red. masses --      2.1269                 1.0959                 1.0469
 Frc consts  --      2.8099                 1.4586                 1.4013
 IR Inten    --      4.4786                11.6783                14.5549

                     91                     92                     93
                      A                      A                      A
 Frequencies --   1520.0999              1521.4051              1529.3312
 Red. masses --      1.0478                 1.0613                 1.1426
 Frc consts  --      1.4266                 1.4474                 1.5745
 IR Inten    --      8.2499                29.2534                34.0284

                     94                     95                     96
                      A                      A                      A
 Frequencies --   1533.7029              1545.1320              1642.2240
 Red. masses --      1.0543                 2.1083                 5.4065
 Frc consts  --      1.4611                 2.9656                 8.5907
 IR Inten    --     14.3295                16.1797                 1.7504

                     97                     98                     99
                      A                      A                      A
 Frequencies --   1662.2947              3058.0001              3063.6529
 Red. masses --      5.6420                 1.0457                 1.0434
 Frc consts  --      9.1855                 5.7616                 5.7701
 IR Inten    --      7.1394                53.5138                77.9270

                    100                    101                    102
                      A                      A                      A
 Frequencies --   3063.9259              3078.4010              3101.3259
 Red. masses --      1.0621                 1.0625                 1.1000
 Frc consts  --      5.8747                 5.9323                 6.2334
 IR Inten    --     44.1949                25.0268                41.6369

                    103                    104                    105
                      A                      A                      A
 Frequencies --   3124.9681              3142.1655              3147.5822
 Red. masses --      1.1040                 1.0572                 1.0948
 Frc consts  --      6.3522                 6.1501                 6.3903
 IR Inten    --     42.8006                 8.5897                34.2447

                    106                    107                    108
                      A                      A                      A
 Frequencies --   3149.6546              3159.6460              3190.3455
 Red. masses --      1.0930                 1.0569                 1.0868
 Frc consts  --      6.3882                 6.2164                 6.5174
 IR Inten    --     14.8430                 5.3034                14.5391

                    109                    110                    111
                      A                      A                      A
 Frequencies --   3191.6871              3193.2932              3203.8075
 Red. masses --      1.0876                 1.1034                 1.0897
 Frc consts  --      6.5275                 6.6294                 6.5898
 IR Inten    --     19.6308                10.2327                14.2011

                    112                    113                    114
                      A                      A                      A
 Frequencies --   3208.7930              3212.6295              3213.7880
 Red. masses --      1.1019                 1.0936                 1.1113
 Frc consts  --      6.6845                 6.6500                 6.7626
 IR Inten    --      7.1613                65.0784                 8.2157

                    115                    116                    117
                      A                      A                      A
 Frequencies --   3224.7445              3239.3898              3525.2596
 Red. masses --      1.0976                 1.1123                 1.0746
 Frc consts  --      6.7248                 6.8769                 7.8685
 IR Inten    --     31.7653                 7.4059               139.6237

 - Thermochemistry -
 -------------------
 Temperature   298.150 Kelvin.  Pressure   1.00000 Atm.
 Atom     1 has atomic number  8 and mass  15.99491

 Molecular mass:   332.08645 amu.
 Principal axes and moments of inertia in atomic units:
                           1         2         3
     Eigenvalues --  4607.397999584.55729**********
           X            0.99988  -0.01299  -0.00870
           Y            0.01291   0.99987  -0.00958
           Z            0.00882   0.00946   0.99992
 This molecule is an asymmetric top.
 Rotational symmetry number  1.
 Warning -- assumption of classical behavior for rotation
           may cause significant error
 Rotational temperatures (Kelvin)      0.01880     0.00904     0.00742
 Rotational constants (GHZ):           0.39171     0.18830     0.15459
 Zero-point vibrational energy     874665.8 (Joules/Mol)
                                  209.05014 (Kcal/Mol)
 Warning -- explicit consideration of  35 degrees of freedom as
           vibrations may cause significant error
 Vibrational temperatures:     36.04    51.14    62.54    78.72    87.52
          (Kelvin)            103.81   113.95   162.84   202.14   232.58
                              257.20   282.33   301.53   327.23   355.75
                              381.70   387.88   439.74   448.15   481.39
                              500.14   517.55   554.23   572.77   609.19
                              627.05   630.04   673.11   695.85   709.66
                              741.11   788.30   812.48   849.77   877.32
                              912.40   959.54  1038.98  1041.73  1086.25
                             1093.00  1117.94  1142.66  1183.83  1232.35
                             1256.13  1263.76  1329.96  1353.65  1363.89
                             1400.36  1419.28  1446.58  1453.77  1461.97
                             1486.18  1514.67  1521.63  1537.42  1546.90
                             1557.90  1582.31  1592.59  1631.74  1653.64
                             1701.54  1706.00  1719.44  1730.29  1740.71
                             1749.60  1772.24  1800.36  1819.13  1833.18
                             1842.69  1852.67  1880.80  1950.31  1967.39
                             1992.46  2026.95  2096.43  2098.30  2121.35
                             2124.89  2135.15  2154.49  2162.54  2168.59
                             2187.08  2188.96  2200.37  2206.66  2223.10
                             2362.79  2391.67  4399.78  4407.91  4408.31
                             4429.13  4462.12  4496.13  4520.88  4528.67
                             4531.65  4546.03  4590.20  4592.13  4594.44
                             4609.56  4616.74  4622.26  4623.92  4639.69
                             4660.76  5072.06

 Zero-point correction=                           0.333143 (Hartree/Particle)
 Thermal correction to Energy=                    0.354381
 Thermal correction to Enthalpy=                  0.355325
 Thermal correction to Gibbs Free Energy=         0.281992
 Sum of electronic and zero-point Energies=          -1713.734204
 Sum of electronic and thermal Energies=             -1713.712966
 Sum of electronic and thermal Enthalpies=           -1713.712022
 Sum of electronic and thermal Free Energies=        -1713.785355

                     E (Thermal)             CV                S
                      KCal/Mol        Cal/Mol-Kelvin    Cal/Mol-Kelvin
 Total                  222.377             81.286            154.343
 Electronic               0.000              0.000              0.000
 Translational            0.889              2.981             43.296
 Rotational               0.889              2.981             34.599
 Vibrational            220.600             75.324             76.449
 Vibration     1          0.593              1.985              6.187
 Vibration     2          0.594              1.982              5.493
 Vibration     3          0.595              1.980              5.095
 Vibration     4          0.596              1.976              4.639
 Vibration     5          0.597              1.973              4.430
 Vibration     6          0.598              1.967              4.094
 Vibration     7          0.600              1.963              3.911
 Vibration     8          0.607              1.939              3.214
 Vibration     9          0.615              1.913              2.797
 Vibration    10          0.622              1.889              2.530
 Vibration    11          0.629              1.868              2.341
 Vibration    12          0.636              1.845              2.168
 Vibration    13          0.642              1.826              2.047
 Vibration    14          0.651              1.799              1.899
 Vibration    15          0.661              1.767              1.750
 Vibration    16          0.671              1.737              1.627
 Vibration    17          0.674              1.729              1.599
 Vibration    18          0.696              1.663              1.386
 Vibration    19          0.700              1.652              1.354
 Vibration    20          0.716              1.606              1.238
 Vibration    21          0.725              1.580              1.177
 Vibration    22          0.734              1.555              1.123
 Vibration    23          0.754              1.502              1.019
 Vibration    24          0.764              1.474              0.970
 Vibration    25          0.786              1.419              0.880
 Vibration    26          0.796              1.392              0.840
 Vibration    27          0.798              1.388              0.833
 Vibration    28          0.825              1.321              0.744
 Vibration    29          0.840              1.286              0.700
 Vibration    30          0.849              1.265              0.675
 Vibration    31          0.870              1.217              0.621
 Vibration    32          0.903              1.144              0.549
 Vibration    33          0.921              1.108              0.515
 Vibration    34          0.948              1.052              0.466
 Vibration    35          0.969              1.011              0.433

                           ! Non-Optimized Parameters !
 Normal termination of Gaussian 16 at Tue Sep 22 06:57:30 2020.

 ----------------------------------------------------------------------
 #p b3lyp/6-31G(d) scrf=(iefpcm,read,solvent=water) geom=allcheck guess
 =read
 ----------------------------------------------------------------------

 Structure from the checkpoint file:  "SM40.n.3.pdb.xyz.mst.n.w.chk"
 ----------------
 SM40.n.3.pdb.xyz
 ----------------
 Charge =  0 Multiplicity = 1

 SCF Done:  E(RB3LYP) =  -1714.06733960     A.U. after    6 cycles
 Normal termination of Gaussian 16 at Tue Sep 22 06:58:22 2020.

 -----------------------------
 #p B3LYP/6-31G* geom=allcheck
 -----------------------------

 Structure from the checkpoint file:  "SM40.n.3.pdb.xyz.mst.n.w.chk"
 ----------------
 SM40.n.3.pdb.xyz
 ----------------
 Charge =  0 Multiplicity = 1

 SCF Done:  E(RB3LYP) =  -1714.03878248     A.U. after   15 cycles
 Normal termination of Gaussian 16 at Tue Sep 22 06:59:31 2020.
 Gaussian 16:  ES64L-G16RevB.01 20-Dec-2017

 ----------------------------------------------------------------------
 #p mp2/aug-cc-pVDZ scf=(MaxCycle=2000,NoVarAcc,NoIncFock) maxdisk=120G
 B geom=allcheck
 ----------------------------------------------------------------------

 Structure from the checkpoint file:  "SM40.n.3.pdb.xyz.mst.n.w.chk"
 ----------------
 SM40.n.3.pdb.xyz
 ----------------
 Charge =  0 Multiplicity = 1

                         Standard orientation:
 ---------------------------------------------------------------------
 Center     Atomic      Atomic             Coordinates (Angstroms)
 Number     Number       Type             X           Y           Z
 ---------------------------------------------------------------------
      1          8           0       -2.069817   -0.115190   -1.715376
      2         16           0       -2.154109   -1.083451   -0.611550
      3          7           0       -0.877707   -0.941398    0.463244
      4          6           0       -0.128214    0.311455    0.667113
      5          6           0       -1.045474    1.552202    0.935479
      6         16           0       -0.054272    2.537795   -0.238242
      7          6           0        0.604621    0.881290   -0.605621
      8          8           0       -0.836254    3.148306   -1.331007
      9          8           0        0.937941    3.381008    0.464100
     10          6           0        0.815292    0.112527    1.871945
     11          6           0        1.803087   -1.071766    1.839656
     12          6           0        2.858913   -1.030675    0.754235
     13          6           0        3.892644   -0.082535    0.794184
     14          6           0        4.861479   -0.036880   -0.208367
     15          6           0        4.818749   -0.946563   -1.268604
     16          6           0        3.803164   -1.902317   -1.313408
     17          6           0        2.834301   -1.942758   -0.307962
     18          7           0       -3.432103   -0.573094    0.350213
     19          6           0       -4.633202   -0.174656   -0.407394
     20          6           0       -3.723793   -1.456513    1.491062
     21          8           0       -2.212260   -2.516581   -0.937627
     22          1           0       -0.267686   -1.745264    0.309752
     23          1           0       -1.025063    1.937661    1.954035
     24          1           0       -2.070633    1.443563    0.583078
     25          1           0        1.689963    0.828976   -0.608876
     26          1           0        0.172953    0.520208   -1.536800
     27          1           0        0.182124    0.000888    2.756965
     28          1           0        1.372968    1.045833    2.000067
     29          1           0        1.254181   -2.016876    1.779171
     30          1           0        2.294530   -1.079868    2.818822
     31          1           0        3.939731    0.624948    1.617243
     32          1           0        5.652864    0.704366   -0.159132
     33          1           0        5.573118   -0.912639   -2.047834
     34          1           0        3.763986   -2.618029   -2.127721
     35          1           0        2.049559   -2.693476   -0.347349
     36          1           0       -4.346605    0.501468   -1.209683
     37          1           0       -5.289223    0.350851    0.287875
     38          1           0       -5.171036   -1.036197   -0.821152
     39          1           0       -2.799776   -1.674152    2.024861
     40          1           0       -4.200762   -2.392409    1.178449
     41          1           0       -4.398719   -0.915119    2.156082
 ---------------------------------------------------------------------

 SCF Done:  E(RHF) =  -1707.24942896     A.U. after   16 cycles
 E2 =    -0.3326006020D+01 EUMP2 =    -0.17105754349792D+04

 The electronic state is 1-A.
 Alpha  occ. eigenvalues --  -92.25723 -92.19069 -20.57520 -20.57444 -20.55124
 Alpha  occ. eigenvalues --  -20.54938 -15.63507 -15.62936 -11.34148 -11.29146
 Alpha  occ. eigenvalues --  -11.28949 -11.28669 -11.27936 -11.26913 -11.26693
 Alpha  occ. eigenvalues --  -11.26590 -11.25837 -11.25798 -11.25654 -11.25445
 Alpha  occ. eigenvalues --  -11.25416  -9.22234  -9.16339  -6.90783  -6.90735
 Alpha  occ. eigenvalues --   -6.90691  -6.84829  -6.84736  -6.84671  -1.48342
 Alpha  occ. eigenvalues --   -1.43167  -1.35369  -1.31903  -1.27961  -1.26158
 Alpha  occ. eigenvalues --   -1.17485  -1.14562  -1.08837  -1.03149  -1.02138
 Alpha  occ. eigenvalues --   -0.99430  -0.97975  -0.96733  -0.92661  -0.86161
 Alpha  occ. eigenvalues --   -0.84421  -0.82494  -0.80828  -0.78046  -0.74185
 Alpha  occ. eigenvalues --   -0.72998  -0.71427  -0.70381  -0.67902  -0.67678
 Alpha  occ. eigenvalues --   -0.66891  -0.65922  -0.65037  -0.64715  -0.63098
 Alpha  occ. eigenvalues --   -0.62876  -0.62040  -0.61049  -0.60315  -0.59922
 Alpha  occ. eigenvalues --   -0.59506  -0.59043  -0.58122  -0.57393  -0.55435
 Alpha  occ. eigenvalues --   -0.54944  -0.53923  -0.53387  -0.52189  -0.51185
 Alpha  occ. eigenvalues --   -0.50633  -0.50035  -0.49615  -0.48978  -0.48191
 Alpha  occ. eigenvalues --   -0.47812  -0.46927  -0.45597  -0.44448  -0.42109
 Alpha  occ. eigenvalues --   -0.41419  -0.35268  -0.34309
 Alpha virt. eigenvalues --    0.02151   0.03031   0.03453   0.03753   0.04391
 Alpha virt. eigenvalues --    0.04652   0.05360   0.05393   0.05866   0.06486
 Alpha virt. eigenvalues --    0.06983   0.07266   0.07746   0.07950   0.08263

 Mulliken charges:
               1
     1  O   -1.215950
     2  S    3.204498
     3  N   -1.410915
     4  C    0.715873
     5  C    0.274044
     6  S    3.002011
     7  C    0.351372
     8  O   -1.259341
     9  O   -1.296144
    10  C    0.512153
    11  C    0.529972
    12  C    0.734552
    13  C    0.522094
    14  C    0.145665
    15  C    0.756642
    16  C    0.072344
    17  C    0.703850
    18  N   -1.120789
    19  C    0.838244
    20  C    0.805857
    21  O   -1.188501
    22  H   -0.134086
    23  H   -0.279154
    24  H   -0.301886
    25  H   -0.322099
    26  H   -0.335014
    27  H   -0.180513
    28  H   -0.096107
    29  H   -0.252768
    30  H   -0.127692
    31  H   -0.692733
    32  H   -0.484804
    33  H   -0.451200
    34  H   -0.492201
    35  H   -0.740345
    36  H   -0.158198
    37  H   -0.152613
    38  H   -0.073046
    39  H   -0.204092
    40  H   -0.035999
    41  H   -0.162981
 Sum of Mulliken charges =  -0.00000

 Dipole moment (field-independent basis, Debye):
    X=             -0.5344    Y=             -4.7087    Z=              5.4417  Tot=              7.2159
 Quadrupole moment (field-independent basis, Debye-Ang):
   XX=           -118.4833   YY=           -171.6005   ZZ=           -141.2418
   XY=             -3.0173   XZ=            -14.8679   YZ=              3.3158

 Normal termination of Gaussian 16 at Tue Sep 22 08:09:40 2020.
