 Gaussian 16, Revision B.01,

 ----------------------------------------------------------------------
 #p b3lyp/6-31G(d) opt freq NoSymm scf=(MaxCycle=2000,NoVarAcc,NoIncFoc
 k) scrf=(iefpcm,read,solvent=water)
 ----------------------------------------------------------------------

 ----------------
 SM40.a.5.pdb.xyz
 ----------------
 Symbolic Z-matrix:
 Charge = -1 Multiplicity = 1

 SCF Done:  E(RB3LYP) =  -1713.58621086     A.U. after   13 cycles
 SCF Done:  E(RB3LYP) =  -1713.58402317     A.U. after   11 cycles
 SCF Done:  E(RB3LYP) =  -1713.58548534     A.U. after   10 cycles
 SCF Done:  E(RB3LYP) =  -1713.58620340     A.U. after    6 cycles
 SCF Done:  E(RB3LYP) =  -1713.58572523     A.U. after   10 cycles
 SCF Done:  E(RB3LYP) =  -1713.58549065     A.U. after   10 cycles
 SCF Done:  E(RB3LYP) =  -1713.58617164     A.U. after   11 cycles
 SCF Done:  E(RB3LYP) =  -1713.58620277     A.U. after    9 cycles
 SCF Done:  E(RB3LYP) =  -1713.58620330     A.U. after    8 cycles
 SCF Done:  E(RB3LYP) =  -1713.58563468     A.U. after   11 cycles
 SCF Done:  E(RB3LYP) =  -1713.58554934     A.U. after   10 cycles
 SCF Done:  E(RB3LYP) =  -1713.58559328     A.U. after    9 cycles
 SCF Done:  E(RB3LYP) =  -1713.58420751     A.U. after   13 cycles
 SCF Done:  E(RB3LYP) =  -1713.58597642     A.U. after   13 cycles
 SCF Done:  E(RB3LYP) =  -1713.58557021     A.U. after   10 cycles
 SCF Done:  E(RB3LYP) =  -1713.58556990     A.U. after    6 cycles
 Optimization completed.
    -- Stationary point found.
 Normal termination of Gaussian 16 at Thu Sep 24 02:59:47 2020.

 --------------------------------------------------------------------
 #P Geom=AllCheck Guess=TCheck SCRF=Check GenChk RB3LYP/6-31G(d) Freq
 --------------------------------------------------------------------

 Structure from the checkpoint file:  "SM40.a.5.pdb.xyz.mst.a.w.chk"
 ----------------
 SM40.a.5.pdb.xyz
 ----------------
 Charge = -1 Multiplicity = 1

 SCF Done:  E(RB3LYP) =  -1713.58556990     A.U. after    1 cycles

  Exact polarizability: 271.174  29.458 269.813 -28.302  24.948 229.223
 Approx polarizability: 302.754  28.592 294.996 -29.176  30.180 262.673

                      1                      2                      3
                      A                      A                      A
 Frequencies --     10.8588                25.9196                26.1105
 Red. masses --      4.8551                 5.9797                 4.0943
 Frc consts  --      0.0003                 0.0024                 0.0016
 IR Inten    --      0.3716                 2.5745                 1.2922

                      4                      5                      6
                      A                      A                      A
 Frequencies --     37.7698                49.7785                72.9776
 Red. masses --      6.9267                 5.7606                 2.9263
 Frc consts  --      0.0058                 0.0084                 0.0092
 IR Inten    --      2.9981                 0.9994                 5.5060

                      7                      8                      9
                      A                      A                      A
 Frequencies --     84.6358               131.4364               150.9334
 Red. masses --      3.8626                 6.4794                 5.8395
 Frc consts  --      0.0163                 0.0660                 0.0784
 IR Inten    --      5.2579                 3.8160                 4.0875

                     10                     11                     12
                      A                      A                      A
 Frequencies --    154.8387               194.4609               215.5602
 Red. masses --      6.1379                 4.6667                 1.4622
 Frc consts  --      0.0867                 0.1040                 0.0400
 IR Inten    --      1.1098                 9.0417                 3.7343

                     13                     14                     15
                      A                      A                      A
 Frequencies --    222.6301               228.9553               243.1347
 Red. masses --      3.0333                 1.0897                 5.2301
 Frc consts  --      0.0886                 0.0337                 0.1822
 IR Inten    --      0.7439                 0.9065                 8.0365

                     16                     17                     18
                      A                      A                      A
 Frequencies --    253.9726               292.0766               303.4407
 Red. masses --      3.1606                 2.7837                 3.3791
 Frc consts  --      0.1201                 0.1399                 0.1833
 IR Inten    --     17.8480                 7.0016                 2.3524

                     19                     20                     21
                      A                      A                      A
 Frequencies --    316.5358               348.0879               357.6330
 Red. masses --      2.9026                 2.7060                 3.0894
 Frc consts  --      0.1713                 0.1932                 0.2328
 IR Inten    --      4.9820                 9.6069                 8.1994

                     22                     23                     24
                      A                      A                      A
 Frequencies --    364.3809               383.6327               409.3643
 Red. masses --      3.1540                 3.5900                 5.1167
 Frc consts  --      0.2467                 0.3113                 0.5052
 IR Inten    --     19.0841                 7.1404                36.4071

                     25                     26                     27
                      A                      A                      A
 Frequencies --    418.6984               435.1748               448.1316
 Red. masses --      2.9769                 4.1996                 4.2513
 Frc consts  --      0.3075                 0.4686                 0.5030
 IR Inten    --      0.1888                29.7156                 6.5215

                     28                     29                     30
                      A                      A                      A
 Frequencies --    476.9611               494.6886               511.6020
 Red. masses --      4.0666                 3.7171                 5.0512
 Frc consts  --      0.5451                 0.5359                 0.7789
 IR Inten    --     11.8452                14.0734                37.4779

                     31                     32                     33
                      A                      A                      A
 Frequencies --    533.0190               560.1193               565.3896
 Red. masses --      4.1266                 7.0035                 3.3296
 Frc consts  --      0.6908                 1.2946                 0.6271
 IR Inten    --     58.4342                27.9570                11.0192

                     34                     35                     36
                      A                      A                      A
 Frequencies --    615.2860               634.1717               641.2868
 Red. masses --      5.1951                 6.4003                 6.8641
 Frc consts  --      1.1588                 1.5166                 1.6632
 IR Inten    --     67.4375                 4.0452               315.6512

                     37                     38                     39
                      A                      A                      A
 Frequencies --    674.9953               715.0835               754.3735
 Red. masses --      3.8502                 2.2319                 2.1184
 Frc consts  --      1.0336                 0.6724                 0.7103
 IR Inten    --     28.6830                27.3723                83.7159

                     40                     41                     42
                      A                      A                      A
 Frequencies --    762.3709               768.9727               782.1170
 Red. masses --      2.6941                 3.1521                 4.8730
 Frc consts  --      0.9226                 1.0982                 1.7563
 IR Inten    --     86.1527                34.1993                51.6660

                     43                     44                     45
                      A                      A                      A
 Frequencies --    807.3463               854.8077               865.1735
 Red. masses --      2.0405                 3.7692                 1.2513
 Frc consts  --      0.7836                 1.6227                 0.5519
 IR Inten    --      2.4335                17.8229                 0.0132

                     46                     47                     48
                      A                      A                      A
 Frequencies --    893.1055               912.5683               928.0142
 Red. masses --      1.7870                 1.8813                 3.3780
 Frc consts  --      0.8398                 0.9231                 1.7140
 IR Inten    --     14.7135                 4.3305               195.0388

                     49                     50                     51
                      A                      A                      A
 Frequencies --    937.6129               974.9892               977.1919
 Red. masses --      1.5922                 2.1813                 1.3554
 Frc consts  --      0.8247                 1.2217                 0.7626
 IR Inten    --      7.1018                49.9214                 0.3699

                     52                     53                     54
                      A                      A                      A
 Frequencies --   1004.2173              1014.3821              1016.1066
 Red. masses --      1.2528                 1.8616                 6.0282
 Frc consts  --      0.7443                 1.1286                 3.6671
 IR Inten    --      0.6951                 7.2805                 0.2333

                     55                     56                     57
                      A                      A                      A
 Frequencies --   1037.0058              1045.9820              1058.3169
 Red. masses --      2.4903                 1.9263                 2.1963
 Frc consts  --      1.5778                 1.2417                 1.4494
 IR Inten    --    116.5992                64.2017                21.2476

                     58                     59                     60
                      A                      A                      A
 Frequencies --   1061.1398              1070.3914              1078.6009
 Red. masses --      1.5587                 2.6193                 2.7325
 Frc consts  --      1.0341                 1.7682                 1.8729
 IR Inten    --     18.2414               243.9763               144.3867

                     61                     62                     63
                      A                      A                      A
 Frequencies --   1099.2937              1120.4620              1126.9953
 Red. masses --      3.2743                 1.9618                 1.2348
 Frc consts  --      2.3313                 1.4511                 0.9240
 IR Inten    --    269.9970                83.0103                 5.8601

                     64                     65                     66
                      A                      A                      A
 Frequencies --   1142.8810              1174.2134              1181.1094
 Red. masses --      4.3030                 1.7865                 1.4688
 Frc consts  --      3.3115                 1.4513                 1.2073
 IR Inten    --    100.3540               178.5602                65.8640

                     67                     68                     69
                      A                      A                      A
 Frequencies --   1184.7280              1188.2675              1200.7531
 Red. masses --      2.9320                 1.0966                 1.9457
 Frc consts  --      2.4247                 0.9122                 1.6529
 IR Inten    --    327.8380                 0.7963               148.6357

                     70                     71                     72
                      A                      A                      A
 Frequencies --   1209.0805              1210.6560              1229.1998
 Red. masses --      1.2322                 3.1322                 2.5102
 Frc consts  --      1.0613                 2.7049                 2.2346
 IR Inten    --     22.6340                77.4713                11.9768

                     73                     74                     75
                      A                      A                      A
 Frequencies --   1236.3378              1255.6983              1263.9845
 Red. masses --      1.9675                 3.6949                 1.8477
 Frc consts  --      1.7719                 3.4326                 1.7393
 IR Inten    --    235.9605               166.9831                 7.1965

                     76                     77                     78
                      A                      A                      A
 Frequencies --   1272.4906              1289.2901              1346.7037
 Red. masses --      1.9644                 1.2489                 2.1389
 Frc consts  --      1.8741                 1.2232                 2.2855
 IR Inten    --     61.0846                 9.7269                 4.4067

                     79                     80                     81
                      A                      A                      A
 Frequencies --   1363.5382              1386.4611              1404.5931
 Red. masses --      2.0814                 1.4358                 1.3867
 Frc consts  --      2.2800                 1.6262                 1.6119
 IR Inten    --      0.8244                14.4478                17.9744

                     82                     83                     84
                      A                      A                      A
 Frequencies --   1443.1348              1449.1415              1465.2146
 Red. masses --      1.1469                 1.1057                 1.1739
 Frc consts  --      1.4073                 1.3680                 1.4849
 IR Inten    --      0.8385                23.3805                 1.9470

                     85                     86                     87
                      A                      A                      A
 Frequencies --   1472.1105              1492.2820              1498.5905
 Red. masses --      1.0957                 1.0884                 2.1124
 Frc consts  --      1.3990                 1.4281                 2.7951
 IR Inten    --      5.1854                 9.8703                 5.3672

                     88                     89                     90
                      A                      A                      A
 Frequencies --   1501.2672              1511.6465              1516.4469
 Red. masses --      1.0491                 1.0533                 1.1032
 Frc consts  --      1.3931                 1.4181                 1.4947
 IR Inten    --     14.8191                13.6039                13.5867

                     91                     92                     93
                      A                      A                      A
 Frequencies --   1519.6791              1529.8052              1543.2335
 Red. masses --      1.0460                 1.0466                 2.2134
 Frc consts  --      1.4233                 1.4431                 3.1058
 IR Inten    --      4.1601                13.2376                18.0496

                     94                     95                     96
                      A                      A                      A
 Frequencies --   1641.3908              1661.9078              3015.5449
 Red. masses --      5.4416                 5.6483                 1.0519
 Frc consts  --      8.6377                 9.1914                 5.6359
 IR Inten    --      1.6494                11.8310                95.1848

                     97                     98                     99
                      A                      A                      A
 Frequencies --   3023.1560              3044.4851              3071.3507
 Red. masses --      1.0507                 1.0654                 1.0675
 Frc consts  --      5.6580                 5.8184                 5.9333
 IR Inten    --    133.9725                37.3998                63.4234

                    100                    101                    102
                      A                      A                      A
 Frequencies --   3084.7180              3110.0036              3113.3144
 Red. masses --      1.0978                 1.0863                 1.0868
 Frc consts  --      6.1546                 6.1905                 6.2063
 IR Inten    --     52.6072                55.3007                48.2085

                    103                    104                    105
                      A                      A                      A
 Frequencies --   3128.8215              3133.0422              3135.0632
 Red. masses --      1.0597                 1.0946                 1.0625
 Frc consts  --      6.1119                 6.3303                 6.1529
 IR Inten    --      5.4945                25.4852                14.8314

                    106                    107                    108
                      A                      A                      A
 Frequencies --   3168.5789              3185.3827              3190.6846
 Red. masses --      1.1008                 1.0985                 1.0870
 Frc consts  --      6.5117                 6.5671                 6.5198
 IR Inten    --     21.7775                15.9786                16.9074

                    109                    110                    111
                      A                      A                      A
 Frequencies --   3197.9035              3206.6232              3212.9376
 Red. masses --      1.0860                 1.0901                 1.1083
 Frc consts  --      6.5435                 6.6039                 6.7405
 IR Inten    --      3.4499                20.3608                 1.1053

                    112                    113                    114
                      A                      A                      A
 Frequencies --   3213.2112              3224.8542              3235.1433
 Red. masses --      1.0939                 1.0977                 1.1050
 Frc consts  --      6.6544                 6.7257                 6.8141
 IR Inten    --     76.4919                31.3911                 8.1343

 - Thermochemistry -
 -------------------
 Temperature   298.150 Kelvin.  Pressure   1.00000 Atm.
 Atom     1 has atomic number  8 and mass  15.99491

 Molecular mass:   331.07863 amu.
 Principal axes and moments of inertia in atomic units:
                           1         2         3
     Eigenvalues --  5670.679768266.73239**********
           X            0.99598  -0.08951   0.00394
           Y            0.08959   0.99458  -0.05270
           Z            0.00079   0.05284   0.99860
 This molecule is an asymmetric top.
 Rotational symmetry number  1.
 Warning -- assumption of classical behavior for rotation
           may cause significant error
 Rotational temperatures (Kelvin)      0.01527     0.01048     0.00737
 Rotational constants (GHZ):           0.31826     0.21831     0.15357
 Zero-point vibrational energy     837600.8 (Joules/Mol)
                                  200.19141 (Kcal/Mol)
 Warning -- explicit consideration of  34 degrees of freedom as
           vibrations may cause significant error
 Vibrational temperatures:     15.62    37.29    37.57    54.34    71.62
          (Kelvin)            105.00   121.77   189.11   217.16   222.78
                              279.79   310.14   320.32   329.42   349.82
                              365.41   420.23   436.58   455.42   500.82
                              514.55   524.26   551.96   588.98   602.41
                              626.12   644.76   686.24   711.75   736.08
                              766.90   805.89   813.47   885.26   912.43
                              922.67   971.17  1028.85  1085.38  1096.88
                             1106.38  1125.29  1161.59  1229.88  1244.79
                             1284.98  1312.98  1335.21  1349.02  1402.79
                             1405.96  1444.84  1459.47  1461.95  1492.02
                             1504.93  1522.68  1526.74  1540.05  1551.87
                             1581.64  1612.09  1621.49  1644.35  1689.43
                             1699.35  1704.56  1709.65  1727.62  1739.60
                             1741.86  1768.54  1778.81  1806.67  1818.59
                             1830.83  1855.00  1937.61  1961.83  1994.81
                             2020.90  2076.35  2084.99  2108.12  2118.04
                             2147.06  2156.14  2159.99  2174.92  2181.83
                             2186.48  2201.05  2220.37  2361.60  2391.11
                             4338.70  4349.65  4380.33  4418.99  4438.22
                             4474.60  4479.36  4501.68  4507.75  4510.66
                             4558.88  4583.06  4590.68  4601.07  4613.62
                             4622.70  4623.09  4639.85  4654.65

 Zero-point correction=                           0.319025 (Hartree/Particle)
 Thermal correction to Energy=                    0.340069
 Thermal correction to Enthalpy=                  0.341013
 Thermal correction to Gibbs Free Energy=         0.266328
 Sum of electronic and zero-point Energies=          -1713.266545
 Sum of electronic and thermal Energies=             -1713.245501
 Sum of electronic and thermal Enthalpies=           -1713.244557
 Sum of electronic and thermal Free Energies=        -1713.319242

                     E (Thermal)             CV                S
                      KCal/Mol        Cal/Mol-Kelvin    Cal/Mol-Kelvin
 Total                  213.396             80.222            157.189
 Electronic               0.000              0.000              0.000
 Translational            0.889              2.981             43.287
 Rotational               0.889              2.981             34.665
 Vibrational            211.619             74.260             79.237
 Vibration     1          0.593              1.987              7.847
 Vibration     2          0.593              1.985              6.120
 Vibration     3          0.593              1.985              6.105
 Vibration     4          0.594              1.982              5.373
 Vibration     5          0.595              1.978              4.826
 Vibration     6          0.599              1.967              4.071
 Vibration     7          0.601              1.960              3.780
 Vibration     8          0.612              1.922              2.925
 Vibration     9          0.618              1.902              2.660
 Vibration    10          0.620              1.897              2.612
 Vibration    11          0.635              1.848              2.185
 Vibration    12          0.645              1.817              1.996
 Vibration    13          0.648              1.807              1.938
 Vibration    14          0.652              1.797              1.887
 Vibration    15          0.659              1.774              1.780
 Vibration    16          0.665              1.756              1.703
 Vibration    17          0.687              1.688              1.462
 Vibration    18          0.695              1.667              1.398
 Vibration    19          0.703              1.642              1.328
 Vibration    20          0.726              1.579              1.175
 Vibration    21          0.733              1.560              1.132
 Vibration    22          0.738              1.546              1.103
 Vibration    23          0.753              1.505              1.025
 Vibration    24          0.774              1.450              0.929
 Vibration    25          0.782              1.430              0.896
 Vibration    26          0.796              1.394              0.842
 Vibration    27          0.807              1.365              0.801
 Vibration    28          0.834              1.301              0.718
 Vibration    29          0.850              1.262              0.672
 Vibration    30          0.867              1.224              0.630
 Vibration    31          0.888              1.177              0.580
 Vibration    32          0.916              1.118              0.524
 Vibration    33          0.921              1.106              0.513
 Vibration    34          0.975              1.000              0.424

                           ! Non-Optimized Parameters !
 Normal termination of Gaussian 16 at Thu Sep 24 03:19:40 2020.

 ----------------------------------------------------------------------
 #p b3lyp/6-31G(d) scrf=(iefpcm,read,solvent=water) geom=allcheck guess
 =read
 ----------------------------------------------------------------------

 Structure from the checkpoint file:  "SM40.a.5.pdb.xyz.mst.a.w.chk"
 ----------------
 SM40.a.5.pdb.xyz
 ----------------
 Charge = -1 Multiplicity = 1

 SCF Done:  E(RB3LYP) =  -1713.58560525     A.U. after    7 cycles
 Normal termination of Gaussian 16 at Thu Sep 24 03:20:37 2020.

 -----------------------------
 #p B3LYP/6-31G* geom=allcheck
 -----------------------------

 Structure from the checkpoint file:  "SM40.a.5.pdb.xyz.mst.a.w.chk"
 ----------------
 SM40.a.5.pdb.xyz
 ----------------
 Charge = -1 Multiplicity = 1

 SCF Done:  E(RB3LYP) =  -1713.48682587     A.U. after   15 cycles
 Normal termination of Gaussian 16 at Thu Sep 24 03:21:48 2020.
 Gaussian 16:  ES64L-G16RevB.01 20-Dec-2017

 ----------------------------------------------------------------------
 #p mp2/aug-cc-pVDZ scf=(MaxCycle=2000,NoVarAcc,NoIncFock) maxdisk=120G
 B geom=allcheck
 ----------------------------------------------------------------------

 Structure from the checkpoint file:  "SM40.a.5.pdb.xyz.mst.a.w.chk"
 ----------------
 SM40.a.5.pdb.xyz
 ----------------
 Charge = -1 Multiplicity = 1

                         Standard orientation:
 ---------------------------------------------------------------------
 Center     Atomic      Atomic             Coordinates (Angstroms)
 Number     Number       Type             X           Y           Z
 ---------------------------------------------------------------------
      1          8           0       -3.745733    0.232642   -1.045522
      2         16           0       -2.416890   -0.260550   -0.584356
      3          7           0       -1.783572    0.840185    0.352133
      4          6           0       -0.344527    0.820515    0.636489
      5          6           0       -0.046090    2.195716    1.327755
      6         16           0        0.580325    2.860613   -0.246278
      7          6           0        0.525878    1.091700   -0.658248
      8          8           0       -0.434495    3.657910   -0.973134
      9          8           0        1.948674    3.421941   -0.159813
     10          6           0        0.091161   -0.391447    1.491044
     11          6           0        1.580093   -0.541302    1.860201
     12          6           0        2.473972   -1.144292    0.794633
     13          6           0        3.692863   -0.542082    0.456048
     14          6           0        4.540763   -1.115310   -0.494704
     15          6           0        4.181257   -2.307672   -1.124535
     16          6           0        2.968427   -2.919379   -0.796043
     17          6           0        2.125751   -2.341933    0.153590
     18          7           0       -2.714459   -1.683139    0.377398
     19          6           0       -3.648850   -1.428953    1.477810
     20          6           0       -3.147616   -2.830538   -0.428240
     21          8           0       -1.537283   -0.787845   -1.668592
     22          1           0        0.764828    2.176156    2.058124
     23          1           0       -0.919888    2.712143    1.719601
     24          1           0        1.539581    0.691229   -0.623044
     25          1           0        0.032618    0.846146   -1.593630
     26          1           0       -0.248817   -1.295864    0.981814
     27          1           0       -0.490825   -0.335218    2.417352
     28          1           0        1.621757   -1.189665    2.744452
     29          1           0        2.005223    0.415598    2.182591
     30          1           0        3.975312    0.387385    0.942555
     31          1           0        5.479004   -0.629123   -0.742429
     32          1           0        4.837134   -2.755653   -1.863968
     33          1           0        2.679174   -3.847273   -1.279207
     34          1           0        1.185465   -2.824007    0.401539
     35          1           0       -3.323268   -0.553232    2.040214
     36          1           0       -3.640343   -2.296634    2.142655
     37          1           0       -4.678365   -1.267488    1.127965
     38          1           0       -2.432724   -2.999985   -1.231946
     39          1           0       -4.150172   -2.691215   -0.859593
     40          1           0       -3.172226   -3.710949    0.220073
 ---------------------------------------------------------------------

 SCF Done:  E(RHF) =  -1706.69944102     A.U. after   17 cycles
 E2 =    -0.3340071609D+01 EUMP2 =    -0.17100395126239D+04

 The electronic state is 1-A.
 Alpha  occ. eigenvalues --  -92.06356 -92.06234 -20.43355 -20.42471 -20.39265
 Alpha  occ. eigenvalues --  -20.38200 -15.46169 -15.38489 -11.18383 -11.16647
 Alpha  occ. eigenvalues --  -11.16517 -11.16453 -11.16213 -11.15765 -11.15674
 Alpha  occ. eigenvalues --  -11.15612 -11.15131 -11.14641 -11.14638 -11.14286
 Alpha  occ. eigenvalues --  -11.12929  -9.03694  -9.02693  -6.72185  -6.72084
 Alpha  occ. eigenvalues --   -6.71999  -6.71259  -6.71180  -6.71145  -1.30864
 Alpha  occ. eigenvalues --   -1.28572  -1.19633  -1.15627  -1.09805  -1.07990
 Alpha  occ. eigenvalues --   -1.07140  -0.98377  -0.96990  -0.93559  -0.90386
 Alpha  occ. eigenvalues --   -0.84603  -0.84051  -0.81143  -0.77979  -0.74908
 Alpha  occ. eigenvalues --   -0.72799  -0.69778  -0.66360  -0.61772  -0.61526
 Alpha  occ. eigenvalues --   -0.57020  -0.56523  -0.55895  -0.54144  -0.53974
 Alpha  occ. eigenvalues --   -0.53867  -0.52218  -0.51173  -0.50828  -0.50432
 Alpha  occ. eigenvalues --   -0.49358  -0.49247  -0.47295  -0.46602  -0.46328
 Alpha  occ. eigenvalues --   -0.44773  -0.44592  -0.43678  -0.43523  -0.41959
 Alpha  occ. eigenvalues --   -0.40799  -0.40472  -0.40235  -0.39014  -0.36752
 Alpha  occ. eigenvalues --   -0.36160  -0.35308  -0.33860  -0.33514  -0.33123
 Alpha  occ. eigenvalues --   -0.32022  -0.29949  -0.29201  -0.25740  -0.25675
 Alpha  occ. eigenvalues --   -0.25504  -0.24328  -0.22079
 Alpha virt. eigenvalues --    0.09423   0.10093   0.10579   0.11390   0.11652
 Alpha virt. eigenvalues --    0.12378   0.13018   0.13415   0.13707   0.14161
 Alpha virt. eigenvalues --    0.15128   0.15401   0.15759   0.15825   0.16415

 Mulliken charges:
               1
     1  O   -1.301441
     2  S    3.042065
     3  N   -1.647622
     4  C    0.212048
     5  C    0.406458
     6  S    2.873873
     7  C    0.246516
     8  O   -1.292749
     9  O   -1.301912
    10  C    0.941342
    11  C    0.293204
    12  C    0.724041
    13  C    0.751047
    14  C    0.122471
    15  C    0.788234
    16  C   -0.054353
    17  C    0.744156
    18  N   -1.108471
    19  C    0.753006
    20  C    0.842374
    21  O   -1.321720
    22  H   -0.254142
    23  H   -0.285718
    24  H   -0.308855
    25  H   -0.360368
    26  H   -0.158271
    27  H   -0.077231
    28  H   -0.112200
    29  H   -0.308420
    30  H   -0.736111
    31  H   -0.478859
    32  H   -0.469230
    33  H   -0.534613
    34  H   -0.704070
    35  H   -0.232476
    36  H   -0.194380
    37  H   -0.036506
    38  H   -0.205826
    39  H   -0.075179
    40  H   -0.180112
 Sum of Mulliken charges =  -1.00000

 Dipole moment (field-independent basis, Debye):
    X=              6.5413    Y=             -7.9638    Z=              6.2741  Tot=             12.0654
 Quadrupole moment (field-independent basis, Debye-Ang):
   XX=           -184.4491   YY=           -179.6013   ZZ=           -150.2825
   XY=              2.4174   XZ=            -13.9252   YZ=             10.4989

 Normal termination of Gaussian 16 at Thu Sep 24 04:37:09 2020.
