 Gaussian 16, Revision B.01,

 ----------------------------------------------------------------------
 #p b3lyp/6-31G(d) opt freq NoSymm scf=(MaxCycle=2000,NoVarAcc,NoIncFoc
 k) scrf=(iefpcm,read,solvent=water)
 ----------------------------------------------------------------------

 ----------------
 SM40.a.4.pdb.xyz
 ----------------
 Symbolic Z-matrix:
 Charge = -1 Multiplicity = 1

 SCF Done:  E(RB3LYP) =  -1713.58684941     A.U. after   13 cycles
 SCF Done:  E(RB3LYP) =  -1713.58551164     A.U. after   11 cycles
 SCF Done:  E(RB3LYP) =  -1713.58542993     A.U. after   11 cycles
 SCF Done:  E(RB3LYP) =  -1713.58528070     A.U. after   11 cycles
 SCF Done:  E(RB3LYP) =  -1713.58435598     A.U. after   11 cycles
 SCF Done:  E(RB3LYP) =  -1713.58684064     A.U. after    8 cycles
 SCF Done:  E(RB3LYP) =  -1713.58685048     A.U. after    4 cycles
 SCF Done:  E(RB3LYP) =  -1713.58622699     A.U. after   11 cycles
 SCF Done:  E(RB3LYP) =  -1713.58636766     A.U. after   10 cycles
 SCF Done:  E(RB3LYP) =  -1713.58683691     A.U. after   10 cycles
 SCF Done:  E(RB3LYP) =  -1713.58640917     A.U. after   10 cycles
 SCF Done:  E(RB3LYP) =  -1713.58642049     A.U. after    9 cycles
 SCF Done:  E(RB3LYP) =  -1713.58637108     A.U. after    8 cycles
 SCF Done:  E(RB3LYP) =  -1713.58636808     A.U. after    7 cycles
 SCF Done:  E(RB3LYP) =  -1713.58637143     A.U. after    7 cycles
 SCF Done:  E(RB3LYP) =  -1713.58637880     A.U. after    7 cycles
 Optimization completed.
    -- Stationary point found.
 Normal termination of Gaussian 16 at Thu Sep 24 03:08:31 2020.

 --------------------------------------------------------------------
 #P Geom=AllCheck Guess=TCheck SCRF=Check GenChk RB3LYP/6-31G(d) Freq
 --------------------------------------------------------------------

 Structure from the checkpoint file:  "SM40.a.4.pdb.xyz.mst.a.w.chk"
 ----------------
 SM40.a.4.pdb.xyz
 ----------------
 Charge = -1 Multiplicity = 1

 SCF Done:  E(RB3LYP) =  -1713.58637880     A.U. after    1 cycles

  Exact polarizability: 296.771  22.514 252.174 -23.584  21.792 222.140
 Approx polarizability: 311.181  29.117 286.619 -22.226  27.498 263.550

                      1                      2                      3
                      A                      A                      A
 Frequencies --     22.3376                38.6866                43.7811
 Red. masses --      5.5389                 5.2417                 4.2581
 Frc consts  --      0.0016                 0.0046                 0.0048
 IR Inten    --      0.0858                 5.9683                 0.4450

                      4                      5                      6
                      A                      A                      A
 Frequencies --     54.0742                59.0505                82.6810
 Red. masses --      5.7378                 5.6055                 4.0101
 Frc consts  --      0.0099                 0.0115                 0.0162
 IR Inten    --      6.1597                 5.8060                 3.9609

                      7                      8                      9
                      A                      A                      A
 Frequencies --     90.1880               122.2846               147.2503
 Red. masses --      3.2277                 5.2412                 8.7566
 Frc consts  --      0.0155                 0.0462                 0.1119
 IR Inten    --      6.2081                 7.1261                 0.6940

                     10                     11                     12
                      A                      A                      A
 Frequencies --    171.6762               187.8132               212.9226
 Red. masses --      5.2060                 4.9796                 1.4856
 Frc consts  --      0.0904                 0.1035                 0.0397
 IR Inten    --      2.7718                 3.6840                 0.9967

                     13                     14                     15
                      A                      A                      A
 Frequencies --    223.8519               231.0962               251.1083
 Red. masses --      1.0695                 4.7476                 2.6226
 Frc consts  --      0.0316                 0.1494                 0.0974
 IR Inten    --      1.3971                13.8398                14.0234

                     16                     17                     18
                      A                      A                      A
 Frequencies --    265.5293               283.0986               314.1004
 Red. masses --      5.1915                 4.0426                 2.9958
 Frc consts  --      0.2157                 0.1909                 0.1741
 IR Inten    --      2.1146                18.1645                 3.5162

                     19                     20                     21
                      A                      A                      A
 Frequencies --    328.8366               341.8234               359.1623
 Red. masses --      2.7679                 2.6613                 3.0138
 Frc consts  --      0.1763                 0.1832                 0.2291
 IR Inten    --      0.2468                 4.8471                13.4803

                     22                     23                     24
                      A                      A                      A
 Frequencies --    362.0367               386.5474               412.2876
 Red. masses --      2.7128                 4.1638                 4.3793
 Frc consts  --      0.2095                 0.3666                 0.4386
 IR Inten    --      0.2339                17.0938                41.6243

                     25                     26                     27
                      A                      A                      A
 Frequencies --    419.7484               434.9553               461.5082
 Red. masses --      2.9701                 3.6827                 4.5980
 Frc consts  --      0.3083                 0.4105                 0.5770
 IR Inten    --      0.0821                19.9911                10.6741

                     28                     29                     30
                      A                      A                      A
 Frequencies --    464.9254               501.0948               511.6419
 Red. masses --      4.0194                 4.2542                 4.4971
 Frc consts  --      0.5119                 0.6294                 0.6936
 IR Inten    --     14.7625                 2.9252                48.0458

                     31                     32                     33
                      A                      A                      A
 Frequencies --    527.4962               560.8561               578.5939
 Red. masses --      4.0158                 6.2158                 3.6351
 Frc consts  --      0.6584                 1.1520                 0.7170
 IR Inten    --     32.3477                19.1265                32.6354

                     34                     35                     36
                      A                      A                      A
 Frequencies --    608.0334               633.8889               636.5337
 Red. masses --      5.0483                 6.5115                 6.7124
 Frc consts  --      1.0996                 1.5416                 1.6024
 IR Inten    --    110.1160                43.4065               193.5612

                     37                     38                     39
                      A                      A                      A
 Frequencies --    677.4523               716.7464               758.1144
 Red. masses --      3.9629                 2.1650                 2.0793
 Frc consts  --      1.0716                 0.6553                 0.7041
 IR Inten    --     20.0694                30.1572                98.9370

                     40                     41                     42
                      A                      A                      A
 Frequencies --    763.9126               777.1084               784.5566
 Red. masses --      3.3635                 2.6924                 3.8832
 Frc consts  --      1.1565                 0.9580                 1.4083
 IR Inten    --    100.0486                36.0622                39.4713

                     43                     44                     45
                      A                      A                      A
 Frequencies --    812.8029               840.7933               864.8813
 Red. masses --      2.1202                 3.5749                 1.2518
 Frc consts  --      0.8253                 1.4890                 0.5517
 IR Inten    --      9.4206                29.7165                 0.2723

                     46                     47                     48
                      A                      A                      A
 Frequencies --    898.9320               908.8197               928.8579
 Red. masses --      1.6658                 2.0607                 3.3817
 Frc consts  --      0.7931                 1.0028                 1.7190
 IR Inten    --     26.3638                36.9906               160.4250

                     49                     50                     51
                      A                      A                      A
 Frequencies --    938.6158               973.3051               977.1201
 Red. masses --      1.6747                 2.2395                 1.3550
 Frc consts  --      0.8693                 1.2499                 0.7622
 IR Inten    --     24.4019                20.0449                 0.1058

                     52                     53                     54
                      A                      A                      A
 Frequencies --   1005.5675              1016.1082              1024.4556
 Red. masses --      1.2559                 6.1006                 3.5507
 Frc consts  --      0.7482                 3.7111                 2.1956
 IR Inten    --      0.4497                 0.3904                72.7079

                     55                     56                     57
                      A                      A                      A
 Frequencies --   1039.5752              1049.9274              1058.6211
 Red. masses --      2.2826                 1.5078                 2.1204
 Frc consts  --      1.4534                 0.9793                 1.4001
 IR Inten    --     20.0470               105.6784                 5.3611

                     58                     59                     60
                      A                      A                      A
 Frequencies --   1060.2182              1069.8806              1078.6053
 Red. masses --      1.5692                 1.8448                 3.4733
 Frc consts  --      1.0392                 1.2441                 2.3808
 IR Inten    --     21.8375                72.8050               232.2088

                     61                     62                     63
                      A                      A                      A
 Frequencies --   1103.7081              1120.6517              1128.0527
 Red. masses --      4.0216                 1.7678                 1.2326
 Frc consts  --      2.8864                 1.3081                 0.9241
 IR Inten    --    402.6873                64.7017                 7.2156

                     64                     65                     66
                      A                      A                      A
 Frequencies --   1146.0338              1178.8230              1184.7006
 Red. masses --      6.0089                 1.3920                 2.1179
 Frc consts  --      4.6499                 1.1397                 1.7514
 IR Inten    --    163.2505                39.8570               127.3903

                     67                     68                     69
                      A                      A                      A
 Frequencies --   1186.5468              1191.9282              1208.0223
 Red. masses --      3.3480                 1.0996                 1.3583
 Frc consts  --      2.7772                 0.9204                 1.1679
 IR Inten    --    297.5783                 0.0903                27.2187

                     70                     71                     72
                      A                      A                      A
 Frequencies --   1210.1031              1220.6484              1228.7334
 Red. masses --      2.2757                 2.1983                 1.8621
 Frc consts  --      1.9634                 1.9299                 1.6564
 IR Inten    --     98.5801               243.5920               139.2098

                     73                     74                     75
                      A                      A                      A
 Frequencies --   1235.2147              1252.1208              1264.1414
 Red. masses --      1.8137                 3.6756                 1.8006
 Frc consts  --      1.6304                 3.3952                 1.6954
 IR Inten    --      8.3725               202.7751                54.0847

                     76                     77                     78
                      A                      A                      A
 Frequencies --   1264.2655              1306.5061              1345.6966
 Red. masses --      1.8736                 1.2870                 2.2133
 Frc consts  --      1.7644                 1.2944                 2.3614
 IR Inten    --     13.9043                20.8608                 4.9121

                     79                     80                     81
                      A                      A                      A
 Frequencies --   1363.9334              1393.4375              1400.2831
 Red. masses --      2.0691                 1.3763                 1.4090
 Frc consts  --      2.2679                 1.5745                 1.6278
 IR Inten    --      0.5909                 5.6288                 7.2758

                     82                     83                     84
                      A                      A                      A
 Frequencies --   1438.1752              1445.8082              1460.6407
 Red. masses --      1.1479                 1.0975                 1.1145
 Frc consts  --      1.3988                 1.3517                 1.4010
 IR Inten    --      1.7276                16.0242                10.3257

                     85                     86                     87
                      A                      A                      A
 Frequencies --   1468.9466              1497.9487              1499.9615
 Red. masses --      1.1487                 1.0565                 2.1157
 Frc consts  --      1.4604                 1.3967                 2.8046
 IR Inten    --      2.8804                14.9920                 4.3614

                     88                     89                     90
                      A                      A                      A
 Frequencies --   1513.0765              1514.3742              1517.3903
 Red. masses --      1.0798                 1.0549                 1.0460
 Frc consts  --      1.4565                 1.4254                 1.4190
 IR Inten    --      8.2775                 9.3066                 8.2355

                     91                     92                     93
                      A                      A                      A
 Frequencies --   1518.3142              1531.9185              1543.0838
 Red. masses --      1.0975                 1.0462                 2.2104
 Frc consts  --      1.4906                 1.4466                 3.1010
 IR Inten    --     14.7985                12.9545                18.9350

                     94                     95                     96
                      A                      A                      A
 Frequencies --   1641.7207              1661.9323              3016.9707
 Red. masses --      5.3934                 5.6379                 1.0520
 Frc consts  --      8.5647                 9.1748                 5.6416
 IR Inten    --      1.6397                12.2063                91.0516

                     97                     98                     99
                      A                      A                      A
 Frequencies --   3023.2954              3048.3574              3076.7458
 Red. masses --      1.0517                 1.0668                 1.0687
 Frc consts  --      5.6637                 5.8409                 5.9604
 IR Inten    --    147.7868                48.7976                12.9635

                    100                    101                    102
                      A                      A                      A
 Frequencies --   3095.4236              3111.7469              3113.7125
 Red. masses --      1.0920                 1.0859                 1.0576
 Frc consts  --      6.1648                 6.1953                 6.0415
 IR Inten    --     72.8722                50.8615                41.3003

                    103                    104                    105
                      A                      A                      A
 Frequencies --   3116.0501              3139.8027              3141.9486
 Red. masses --      1.0868                 1.0582                 1.0964
 Frc consts  --      6.2174                 6.1466                 6.3768
 IR Inten    --     47.6031                 6.3855                12.9390

                    106                    107                    108
                      A                      A                      A
 Frequencies --   3179.0207              3188.5261              3189.5476
 Red. masses --      1.0996                 1.0986                 1.1120
 Frc consts  --      6.5472                 6.5807                 6.6654
 IR Inten    --     16.3845                15.1244                16.7393

                    109                    110                    111
                      A                      A                      A
 Frequencies --   3193.4622              3197.4094              3207.6732
 Red. masses --      1.0864                 1.0864                 1.0901
 Frc consts  --      6.5280                 6.5439                 6.6083
 IR Inten    --     17.4482                 4.1496                15.9823

                    112                    113                    114
                      A                      A                      A
 Frequencies --   3213.0056              3217.4114              3226.1488
 Red. masses --      1.0942                 1.1107                 1.0975
 Frc consts  --      6.6551                 6.7741                 6.7303
 IR Inten    --     79.5153                 3.3434                33.3753

 - Thermochemistry -
 -------------------
 Temperature   298.150 Kelvin.  Pressure   1.00000 Atm.
 Atom     1 has atomic number  8 and mass  15.99491

 Molecular mass:   331.07863 amu.
 Principal axes and moments of inertia in atomic units:
                           1         2         3
     Eigenvalues --  3636.89507********************
           X            0.99998  -0.00658   0.00091
           Y            0.00660   0.99981  -0.01851
           Z           -0.00079   0.01852   0.99983
 This molecule is an asymmetric top.
 Rotational symmetry number  1.
 Warning -- assumption of classical behavior for rotation
           may cause significant error
 Rotational temperatures (Kelvin)      0.02382     0.00768     0.00650
 Rotational constants (GHZ):           0.49623     0.15995     0.13542
 Zero-point vibrational energy     838819.0 (Joules/Mol)
                                  200.48254 (Kcal/Mol)
 Warning -- explicit consideration of  34 degrees of freedom as
           vibrations may cause significant error
 Vibrational temperatures:     32.14    55.66    62.99    77.80    84.96
          (Kelvin)            118.96   129.76   175.94   211.86   247.00
                              270.22   306.35   322.07   332.50   361.29
                              382.04   407.32   451.92   473.12   491.81
                              516.75   520.89   556.16   593.19   603.92
                              625.80   664.01   668.92   720.96   736.14
                              758.95   806.95   832.47   874.82   912.02
                              915.83   974.70  1031.24  1090.76  1099.10
                             1118.09  1128.80  1169.44  1209.71  1244.37
                             1293.36  1307.59  1336.42  1350.46  1400.37
                             1405.86  1446.79  1461.95  1473.96  1495.72
                             1510.61  1523.12  1525.42  1539.32  1551.87
                             1587.99  1612.37  1623.02  1648.89  1696.06
                             1704.52  1707.18  1714.92  1738.07  1741.07
                             1756.24  1767.87  1777.20  1801.52  1818.82
                             1819.00  1879.77  1936.16  1962.40  2004.85
                             2014.70  2069.21  2080.20  2101.54  2113.49
                             2155.21  2158.11  2176.98  2178.85  2183.19
                             2184.52  2204.09  2220.15  2362.07  2391.15
                             4340.75  4349.85  4385.91  4426.75  4453.62
                             4477.11  4479.94  4483.30  4517.48  4520.56
                             4573.90  4587.58  4589.05  4594.68  4600.36
                             4615.13  4622.80  4629.14  4641.71

 Zero-point correction=                           0.319489 (Hartree/Particle)
 Thermal correction to Energy=                    0.340305
 Thermal correction to Enthalpy=                  0.341249
 Thermal correction to Gibbs Free Energy=         0.268875
 Sum of electronic and zero-point Energies=          -1713.266890
 Sum of electronic and thermal Energies=             -1713.246074
 Sum of electronic and thermal Enthalpies=           -1713.245130
 Sum of electronic and thermal Free Energies=        -1713.317504

                     E (Thermal)             CV                S
                      KCal/Mol        Cal/Mol-Kelvin    Cal/Mol-Kelvin
 Total                  213.545             80.049            152.324
 Electronic               0.000              0.000              0.000
 Translational            0.889              2.981             43.287
 Rotational               0.889              2.981             34.657
 Vibrational            211.767             74.087             74.380
 Vibration     1          0.593              1.985              6.415
 Vibration     2          0.594              1.981              5.325
 Vibration     3          0.595              1.980              5.080
 Vibration     4          0.596              1.976              4.663
 Vibration     5          0.596              1.974              4.489
 Vibration     6          0.600              1.961              3.826
 Vibration     7          0.602              1.956              3.656
 Vibration     8          0.610              1.931              3.064
 Vibration     9          0.617              1.906              2.707
 Vibration    10          0.626              1.877              2.417
 Vibration    11          0.632              1.857              2.249
 Vibration    12          0.644              1.821              2.018
 Vibration    13          0.649              1.805              1.928
 Vibration    14          0.653              1.793              1.870
 Vibration    15          0.663              1.761              1.723
 Vibration    16          0.671              1.736              1.625
 Vibration    17          0.682              1.705              1.515
 Vibration    18          0.702              1.647              1.341
 Vibration    19          0.712              1.618              1.266
 Vibration    20          0.721              1.592              1.204
 Vibration    21          0.734              1.556              1.126
 Vibration    22          0.736              1.550              1.113
 Vibration    23          0.755              1.499              1.013
 Vibration    24          0.776              1.444              0.919
 Vibration    25          0.782              1.427              0.893
 Vibration    26          0.796              1.394              0.843
 Vibration    27          0.819              1.335              0.762
 Vibration    28          0.822              1.328              0.752
 Vibration    29          0.856              1.248              0.655
 Vibration    30          0.867              1.224              0.630
 Vibration    31          0.882              1.189              0.593
 Vibration    32          0.917              1.116              0.522
 Vibration    33          0.935              1.078              0.488
 Vibration    34          0.967              1.015              0.436

 Optimization completed.
    -- Stationary point found.
 Normal termination of Gaussian 16 at Thu Sep 24 03:27:56 2020.

 ----------------------------------------------------------------------
 #p b3lyp/6-31G(d) scrf=(iefpcm,read,solvent=water) geom=allcheck guess
 =read
 ----------------------------------------------------------------------

 Structure from the checkpoint file:  "SM40.a.4.pdb.xyz.mst.a.w.chk"
 ----------------
 SM40.a.4.pdb.xyz
 ----------------
 Charge = -1 Multiplicity = 1

 SCF Done:  E(RB3LYP) =  -1713.58637062     A.U. after    6 cycles
 Normal termination of Gaussian 16 at Thu Sep 24 03:28:45 2020.

 -----------------------------
 #p B3LYP/6-31G* geom=allcheck
 -----------------------------

 Structure from the checkpoint file:  "SM40.a.4.pdb.xyz.mst.a.w.chk"
 ----------------
 SM40.a.4.pdb.xyz
 ----------------
 Charge = -1 Multiplicity = 1

 SCF Done:  E(RB3LYP) =  -1713.49282298     A.U. after   15 cycles
 Normal termination of Gaussian 16 at Thu Sep 24 03:29:54 2020.
 Gaussian 16:  ES64L-G16RevB.01 20-Dec-2017

 ----------------------------------------------------------------------
 #p mp2/aug-cc-pVDZ scf=(MaxCycle=2000,NoVarAcc,NoIncFock) maxdisk=120G
 B geom=allcheck
 ----------------------------------------------------------------------

 Structure from the checkpoint file:  "SM40.a.4.pdb.xyz.mst.a.w.chk"
 ----------------
 SM40.a.4.pdb.xyz
 ----------------
 Charge = -1 Multiplicity = 1

                         Standard orientation:
 ---------------------------------------------------------------------
 Center     Atomic      Atomic             Coordinates (Angstroms)
 Number     Number       Type             X           Y           Z
 ---------------------------------------------------------------------
      1          8           0       -3.354229   -2.023280   -1.217849
      2         16           0       -2.610512   -1.216786   -0.209403
      3          7           0       -1.296711   -0.663636   -0.883542
      4          6           0       -0.185795   -0.199692   -0.043749
      5          6           0       -0.591691    0.894609    1.026305
      6         16           0        0.098222    2.198828   -0.034986
      7          6           0        0.686798    0.742417   -0.948591
      8          8           0       -0.943670    2.957360   -0.766720
      9          8           0        1.184837    2.979038    0.602554
     10          6           0        0.591195   -1.397391    0.554154
     11          6           0        1.865493   -1.134411    1.382297
     12          6           0        3.135616   -0.870415    0.597540
     13          6           0        3.932336    0.249438    0.869522
     14          6           0        5.122435    0.473323    0.172861
     15          6           0        5.537606   -0.424984   -0.811022
     16          6           0        4.752731   -1.546662   -1.092678
     17          6           0        3.565606   -1.764778   -0.394099
     18          7           0       -3.606844    0.165401    0.177953
     19          6           0       -3.987317    0.941522   -1.006496
     20          6           0       -4.784541   -0.185114    0.980613
     21          8           0       -2.454540   -1.867064    1.124090
     22          1           0       -0.045837    0.857179    1.970262
     23          1           0       -1.665711    0.997882    1.181274
     24          1           0        1.763923    0.639596   -0.822072
     25          1           0        0.406701    0.744166   -1.999846
     26          1           0        0.841393   -2.064537   -0.277428
     27          1           0       -0.128534   -1.934266    1.174941
     28          1           0        2.027423   -2.028579    1.997302
     29          1           0        1.709137   -0.317208    2.094490
     30          1           0        3.609982    0.954755    1.630078
     31          1           0        5.722119    1.349353    0.398946
     32          1           0        6.461262   -0.253712   -1.354187
     33          1           0        5.066360   -2.252386   -1.855468
     34          1           0        2.960451   -2.637238   -0.620084
     35          1           0       -3.097686    1.187512   -1.585436
     36          1           0       -4.452841    1.870841   -0.668610
     37          1           0       -4.701885    0.406745   -1.648304
     38          1           0       -4.471266   -0.746128    1.859368
     39          1           0       -5.520095   -0.777985    0.416664
     40          1           0       -5.265373    0.743391    1.300899
 ---------------------------------------------------------------------

 SCF Done:  E(RHF) =  -1706.70475796     A.U. after   16 cycles
 E2 =    -0.3339882764D+01 EUMP2 =    -0.17100446407190D+04

 The electronic state is 1-A.
 Alpha  occ. eigenvalues --  -92.07012 -92.06252 -20.43986 -20.43523 -20.39313
 Alpha  occ. eigenvalues --  -20.38403 -15.45679 -15.38554 -11.18519 -11.16835
 Alpha  occ. eigenvalues --  -11.16750 -11.16707 -11.16486 -11.15944 -11.15813
 Alpha  occ. eigenvalues --  -11.15432 -11.15268 -11.14672 -11.14130 -11.13221
 Alpha  occ. eigenvalues --  -11.12087  -9.04369  -9.02706  -6.72862  -6.72758
 Alpha  occ. eigenvalues --   -6.72669  -6.71276  -6.71194  -6.71155  -1.31650
 Alpha  occ. eigenvalues --   -1.28613  -1.20510  -1.15768  -1.09258  -1.08072
 Alpha  occ. eigenvalues --   -1.07191  -0.98383  -0.97163  -0.93803  -0.90221
 Alpha  occ. eigenvalues --   -0.84725  -0.83700  -0.81203  -0.76928  -0.75087
 Alpha  occ. eigenvalues --   -0.72985  -0.69931  -0.66289  -0.61861  -0.61443
 Alpha  occ. eigenvalues --   -0.57475  -0.56281  -0.56109  -0.54706  -0.54234
 Alpha  occ. eigenvalues --   -0.53954  -0.52028  -0.51401  -0.50969  -0.50451
 Alpha  occ. eigenvalues --   -0.49167  -0.48831  -0.47326  -0.46877  -0.46093
 Alpha  occ. eigenvalues --   -0.45606  -0.43663  -0.43421  -0.42694  -0.42041
 Alpha  occ. eigenvalues --   -0.41024  -0.40293  -0.39451  -0.38808  -0.36945
 Alpha  occ. eigenvalues --   -0.36800  -0.35197  -0.34288  -0.33996  -0.33251
 Alpha  occ. eigenvalues --   -0.32242  -0.30738  -0.29499  -0.25961  -0.25584
 Alpha  occ. eigenvalues --   -0.25026  -0.24681  -0.22023
 Alpha virt. eigenvalues --    0.09142   0.10378   0.10852   0.11779   0.11888
 Alpha virt. eigenvalues --    0.12732   0.13443   0.13718   0.13911   0.14288
 Alpha virt. eigenvalues --    0.14702   0.15825   0.15961   0.16117   0.16688

 Mulliken charges:
               1
     1  O   -1.300565
     2  S    3.131333
     3  N   -1.615684
     4  C    0.173324
     5  C    0.641426
     6  S    2.864007
     7  C    0.479855
     8  O   -1.312100
     9  O   -1.310006
    10  C    0.806251
    11  C    0.029855
    12  C    0.787856
    13  C    0.725562
    14  C    0.065911
    15  C    0.794944
    16  C   -0.026344
    17  C    0.611986
    18  N   -1.136167
    19  C    0.789793
    20  C    0.828915
    21  O   -1.335760
    22  H   -0.415023
    23  H   -0.400809
    24  H   -0.230019
    25  H   -0.377813
    26  H   -0.081713
    27  H   -0.065182
    28  H   -0.122567
    29  H   -0.283422
    30  H   -0.717292
    31  H   -0.476723
    32  H   -0.465162
    33  H   -0.503528
    34  H   -0.704726
    35  H   -0.192744
    36  H   -0.199877
    37  H   -0.029193
    38  H   -0.200128
    39  H   -0.049909
    40  H   -0.178560
 Sum of Mulliken charges =  -1.00000

 Dipole moment (field-independent basis, Debye):
    X=              7.3973    Y=              0.1789    Z=              2.2647  Tot=              7.7383
 Quadrupole moment (field-independent basis, Debye-Ang):
   XX=           -177.3233   YY=           -185.0717   ZZ=           -151.1198
   XY=            -19.7991   XZ=            -11.5450   YZ=              0.1372

 Normal termination of Gaussian 16 at Thu Sep 24 04:59:57 2020.
