 Gaussian 16, Revision B.01,

 ----------------------------------------------------------------------
 #p b3lyp/6-31G(d) opt freq NoSymm scf=(MaxCycle=2000,NoVarAcc,NoIncFoc
 k) scrf=(iefpcm,read,solvent=water)
 ----------------------------------------------------------------------

 ----------------
 SM40.b.8.pdb.xyz
 ----------------
 Symbolic Z-matrix:
 Charge =  1 Multiplicity = 1

 SCF Done:  E(RB3LYP) =  -1714.50498693     A.U. after   13 cycles
 SCF Done:  E(RB3LYP) =  -1714.50417853     A.U. after   11 cycles
 SCF Done:  E(RB3LYP) =  -1714.50357773     A.U. after   11 cycles
 SCF Done:  E(RB3LYP) =  -1714.50494136     A.U. after   10 cycles
 SCF Done:  E(RB3LYP) =  -1714.50498570     A.U. after    9 cycles
 SCF Done:  E(RB3LYP) =  -1714.50498725     A.U. after    8 cycles
 SCF Done:  E(RB3LYP) =  -1714.50364863     A.U. after   11 cycles
 SCF Done:  E(RB3LYP) =  -1714.50464630     A.U. after   10 cycles
 SCF Done:  E(RB3LYP) =  -1714.50497936     A.U. after    6 cycles
 SCF Done:  E(RB3LYP) =  -1714.50446133     A.U. after   10 cycles
 SCF Done:  E(RB3LYP) =  -1714.50496342     A.U. after   11 cycles
 SCF Done:  E(RB3LYP) =  -1714.50446461     A.U. after   10 cycles
 SCF Done:  E(RB3LYP) =  -1714.50442225     A.U. after    9 cycles
 SCF Done:  E(RB3LYP) =  -1714.50444201     A.U. after    8 cycles
 SCF Done:  E(RB3LYP) =  -1714.50445007     A.U. after    7 cycles
 SCF Done:  E(RB3LYP) =  -1714.50444605     A.U. after    7 cycles
 Optimization completed.
    -- Stationary point found.
 Normal termination of Gaussian 16 at Thu Sep 24 02:22:25 2020.

 --------------------------------------------------------------------
 #P Geom=AllCheck Guess=TCheck SCRF=Check GenChk RB3LYP/6-31G(d) Freq
 --------------------------------------------------------------------

 Structure from the checkpoint file:  "SM40.b.8.pdb.xyz.mst.b.w.chk"
 ----------------
 SM40.b.8.pdb.xyz
 ----------------
 Charge =  1 Multiplicity = 1

 SCF Done:  E(RB3LYP) =  -1714.50444605     A.U. after    1 cycles

  Exact polarizability: 263.872 -42.099 241.843  10.071  18.426 239.794
 Approx polarizability: 293.450 -42.695 270.152  18.026  15.452 280.669

                      1                      2                      3
                      A                      A                      A
 Frequencies --     20.1254                35.2681                42.6944
 Red. masses --      4.2515                 7.7741                 3.4808
 Frc consts  --      0.0010                 0.0057                 0.0037
 IR Inten    --      8.6380                12.9066                 1.4040

                      4                      5                      6
                      A                      A                      A
 Frequencies --     48.4873                51.3074                62.6987
 Red. masses --      4.6352                 4.8359                 3.3637
 Frc consts  --      0.0064                 0.0075                 0.0078
 IR Inten    --      1.0206                 4.1084                 0.3843

                      7                      8                      9
                      A                      A                      A
 Frequencies --     89.2715               121.9580               151.2078
 Red. masses --      5.6818                 5.8596                 6.5965
 Frc consts  --      0.0267                 0.0514                 0.0889
 IR Inten    --     12.8568                 4.3429                 0.6813

                     10                     11                     12
                      A                      A                      A
 Frequencies --    162.7260               180.1184               185.9677
 Red. masses --      4.0841                 1.8653                 2.2261
 Frc consts  --      0.0637                 0.0357                 0.0454
 IR Inten    --      2.2332                 3.0846                 7.8592

                     13                     14                     15
                      A                      A                      A
 Frequencies --    208.3183               216.1721               248.0200
 Red. masses --      5.1420                 1.2268                 3.6926
 Frc consts  --      0.1315                 0.0338                 0.1338
 IR Inten    --      1.8313                 1.2020                 5.2968

                     16                     17                     18
                      A                      A                      A
 Frequencies --    258.1165               268.1691               288.5794
 Red. masses --      3.7232                 3.4904                 3.0401
 Frc consts  --      0.1461                 0.1479                 0.1492
 IR Inten    --     27.7582                17.6189                11.9475

                     19                     20                     21
                      A                      A                      A
 Frequencies --    304.0791               327.4874               343.1175
 Red. masses --      3.1353                 2.9666                 2.7884
 Frc consts  --      0.1708                 0.1875                 0.1934
 IR Inten    --     12.0390                22.3436                 8.5669

                     22                     23                     24
                      A                      A                      A
 Frequencies --    357.2011               361.7498               374.3493
 Red. masses --      3.1202                 3.6358                 1.9422
 Frc consts  --      0.2346                 0.2803                 0.1604
 IR Inten    --     45.2668                 6.1814                38.3196

                     25                     26                     27
                      A                      A                      A
 Frequencies --    409.8363               421.4622               432.3628
 Red. masses --      1.9463                 2.8753                 3.6637
 Frc consts  --      0.1926                 0.3009                 0.4035
 IR Inten    --     80.2744                 4.8745                31.4835

                     28                     29                     30
                      A                      A                      A
 Frequencies --    446.2631               455.3361               485.7863
 Red. masses --      4.0081                 3.1472                 3.8145
 Frc consts  --      0.4703                 0.3844                 0.5304
 IR Inten    --     24.5677                66.3567                21.5320

                     31                     32                     33
                      A                      A                      A
 Frequencies --    495.3246               523.9875               571.3595
 Red. masses --      4.2055                 4.1558                 3.9893
 Frc consts  --      0.6079                 0.6723                 0.7673
 IR Inten    --     36.9742                17.9438                 6.3424

                     34                     35                     36
                      A                      A                      A
 Frequencies --    582.3157               596.5557               611.8562
 Red. masses --      3.5568                 5.6296                 6.4361
 Frc consts  --      0.7106                 1.1804                 1.4196
 IR Inten    --     75.4279               155.5828               138.0759

                     37                     38                     39
                      A                      A                      A
 Frequencies --    634.4233               714.5669               723.4056
 Red. masses --      6.3491                 2.4655                 2.6634
 Frc consts  --      1.5056                 0.7417                 0.8212
 IR Inten    --      0.3777                13.8910                16.3737

                     40                     41                     42
                      A                      A                      A
 Frequencies --    745.9361               754.2387               769.9142
 Red. masses --      2.4937                 3.9270                 2.1817
 Frc consts  --      0.8175                 1.3162                 0.7619
 IR Inten    --     57.3968                65.4500                25.1690

                     43                     44                     45
                      A                      A                      A
 Frequencies --    801.1636               824.2152               857.5443
 Red. masses --      3.4676                 1.5670                 2.9869
 Frc consts  --      1.3114                 0.6272                 1.2942
 IR Inten    --      6.9591                 3.0875                46.8504

                     46                     47                     48
                      A                      A                      A
 Frequencies --    867.2923               875.3009               900.8531
 Red. masses --      1.2542                 3.4716                 2.2207
 Frc consts  --      0.5558                 1.5671                 1.0618
 IR Inten    --      0.0413                41.3227                10.2339

                     49                     50                     51
                      A                      A                      A
 Frequencies --    922.5999               956.0544               973.4628
 Red. masses --      1.6703                 2.0398                 3.2418
 Frc consts  --      0.8377                 1.0985                 1.8100
 IR Inten    --     30.2368                 3.2774               170.1521

                     52                     53                     54
                      A                      A                      A
 Frequencies --    979.7587              1004.3473              1007.9032
 Red. masses --      1.3686                 1.3425                 2.2317
 Frc consts  --      0.7740                 0.7978                 1.3357
 IR Inten    --      3.5024                 0.2375                10.2437

                     55                     56                     57
                      A                      A                      A
 Frequencies --   1016.0967              1016.6413              1048.4704
 Red. masses --      2.5538                 5.8852                 1.6279
 Frc consts  --      1.5535                 3.5838                 1.0544
 IR Inten    --     24.0949                 0.7585                17.9619

                     58                     59                     60
                      A                      A                      A
 Frequencies --   1053.7072              1061.6800              1065.6079
 Red. masses --      2.3627                 1.2342                 1.9861
 Frc consts  --      1.5456                 0.8196                 1.3287
 IR Inten    --     55.3886                12.8221                23.5980

                     61                     62                     63
                      A                      A                      A
 Frequencies --   1081.6568              1094.2895              1118.4887
 Red. masses --      2.8803                 1.4553                 2.0063
 Frc consts  --      1.9855                 1.0268                 1.4788
 IR Inten    --    292.1702                17.1382                31.5533

                     64                     65                     66
                      A                      A                      A
 Frequencies --   1139.6027              1145.5717              1157.6018
 Red. masses --      3.1616                 4.4920                 1.8155
 Frc consts  --      2.4192                 3.4732                 1.4334
 IR Inten    --    124.3831               163.0629                33.5509

                     67                     68                     69
                      A                      A                      A
 Frequencies --   1183.1704              1183.6752              1213.7339
 Red. masses --      1.0873                 1.4559                 1.1856
 Frc consts  --      0.8968                 1.2018                 1.0291
 IR Inten    --      0.4888                31.5418                 5.8690

                     70                     71                     72
                      A                      A                      A
 Frequencies --   1214.4118              1232.5400              1233.7661
 Red. masses --      1.2774                 2.3169                 1.6495
 Frc consts  --      1.1099                 2.0738                 1.4793
 IR Inten    --     21.9065                 9.7015                15.2672

                     73                     74                     75
                      A                      A                      A
 Frequencies --   1248.0188              1257.2533              1268.8318
 Red. masses --      1.9074                 1.6522                 1.5624
 Frc consts  --      1.7504                 1.5388                 1.4820
 IR Inten    --     64.7985                 8.9461                56.8022

                     76                     77                     78
                      A                      A                      A
 Frequencies --   1290.3088              1320.0849              1349.6438
 Red. masses --      2.9636                 1.5603                 2.8523
 Frc consts  --      2.9071                 1.6020                 3.0611
 IR Inten    --    268.2911                43.9236                48.6852

                     79                     80                     81
                      A                      A                      A
 Frequencies --   1359.7839              1363.7226              1393.8243
 Red. masses --      5.7348                 1.7528                 1.4119
 Frc consts  --      6.2475                 1.9206                 1.6161
 IR Inten    --    317.8989                 0.6795                 9.1683

                     82                     83                     84
                      A                      A                      A
 Frequencies --   1410.7072              1416.8581              1448.8923
 Red. masses --      1.2152                 1.3992                 1.1074
 Frc consts  --      1.4249                 1.6549                 1.3697
 IR Inten    --     41.6883                 1.7080                40.9673

                     85                     86                     87
                      A                      A                      A
 Frequencies --   1450.1216              1459.3889              1470.7552
 Red. masses --      1.1441                 1.1596                 1.1645
 Frc consts  --      1.4175                 1.4552                 1.4841
 IR Inten    --      4.5598                87.5458                21.9023

                     88                     89                     90
                      A                      A                      A
 Frequencies --   1476.4983              1495.9065              1496.6355
 Red. masses --      1.1710                 1.1908                 1.5580
 Frc consts  --      1.5041                 1.5700                 2.0561
 IR Inten    --      3.2715                21.2499                12.4666

                     91                     92                     93
                      A                      A                      A
 Frequencies --   1502.8490              1505.7535              1506.4943
 Red. masses --      1.0783                 1.1876                 1.0465
 Frc consts  --      1.4349                 1.5865                 1.3993
 IR Inten    --     54.5641                24.6675                 6.0123

                     94                     95                     96
                      A                      A                      A
 Frequencies --   1512.4044              1515.8401              1536.5766
 Red. masses --      1.0979                 1.0633                 1.0710
 Frc consts  --      1.4796                 1.4395                 1.4898
 IR Inten    --     19.9313                10.1832                81.0296

                     97                     98                     99
                      A                      A                      A
 Frequencies --   1546.0099              1640.0792              1663.0402
 Red. masses --      2.2031                 5.5855                 5.5821
 Frc consts  --      3.1024                 8.8521                 9.0961
 IR Inten    --     18.8698                 1.8437                 9.7398

                    100                    101                    102
                      A                      A                      A
 Frequencies --   3058.3396              3077.4071              3101.3302
 Red. masses --      1.0647                 1.0640                 1.0962
 Frc consts  --      5.8675                 5.9370                 6.2122
 IR Inten    --     35.3549                10.5763                41.0531

                    103                    104                    105
                      A                      A                      A
 Frequencies --   3122.5270              3124.8415              3128.8797
 Red. masses --      1.1024                 1.0296                 1.0299
 Frc consts  --      6.3326                 5.9234                 5.9407
 IR Inten    --     22.7887                 3.4234                 7.3604

                    106                    107                    108
                      A                      A                      A
 Frequencies --   3141.9569              3168.0726              3194.4843
 Red. masses --      1.0575                 1.0579                 1.0861
 Frc consts  --      6.1506                 6.2557                 6.5302
 IR Inten    --      0.7649                 2.0895                12.4617

                    109                    110                    111
                      A                      A                      A
 Frequencies --   3196.3158              3205.6009              3215.7093
 Red. masses --      1.0878                 1.0898                 1.0938
 Frc consts  --      6.5476                 6.5980                 6.6643
 IR Inten    --     12.4441                20.0664                64.7197

                    112                    113                    114
                      A                      A                      A
 Frequencies --   3216.5400              3220.4341              3224.5931
 Red. masses --      1.1124                 1.1088                 1.1092
 Frc consts  --      6.7811                 6.7752                 6.7952
 IR Inten    --      0.7589                 2.5261                 1.9244

                    115                    116                    117
                      A                      A                      A
 Frequencies --   3226.1786              3236.7582              3240.1430
 Red. masses --      1.0975                 1.1105                 1.1084
 Frc consts  --      6.7301                 6.8548                 6.8560
 IR Inten    --     29.0057                 2.0131                 1.3027

                    118                    119                    120
                      A                      A                      A
 Frequencies --   3240.9869              3383.4542              3519.0404
 Red. masses --      1.1089                 1.0779                 1.0771
 Frc consts  --      6.8629                 7.2704                 7.8590
 IR Inten    --      0.7919               233.0775               286.4638

 - Thermochemistry -
 -------------------
 Temperature   298.150 Kelvin.  Pressure   1.00000 Atm.
 Atom     1 has atomic number  8 and mass  15.99491

 Molecular mass:   333.09428 amu.
 Principal axes and moments of inertia in atomic units:
                           1         2         3
     Eigenvalues --  5162.292738614.04653**********
           X            0.96704   0.24368   0.07380
           Y           -0.24500   0.96948   0.00924
           Z           -0.06930  -0.02702   0.99723
 This molecule is an asymmetric top.
 Rotational symmetry number  1.
 Warning -- assumption of classical behavior for rotation
           may cause significant error
 Rotational temperatures (Kelvin)      0.01678     0.01005     0.00728
 Rotational constants (GHZ):           0.34960     0.20951     0.15163
 Zero-point vibrational energy     911932.5 (Joules/Mol)
                                  217.95709 (Kcal/Mol)
 Warning -- explicit consideration of  36 degrees of freedom as
           vibrations may cause significant error
 Vibrational temperatures:     28.96    50.74    61.43    69.76    73.82
          (Kelvin)             90.21   128.44   175.47   217.55   234.13
                              259.15   267.57   299.72   311.02   356.85
                              371.37   385.84   415.20   437.50   471.18
                              493.67   513.93   520.48   538.61   589.66
                              606.39   622.07   642.07   655.13   698.94
                              712.66   753.90   822.06   837.82   858.31
                              880.32   912.79  1028.10  1040.82  1073.24
                             1085.18  1107.73  1152.70  1185.86  1233.82
                             1247.84  1259.36  1296.13  1327.42  1375.55
                             1400.60  1409.65  1445.03  1450.15  1461.94
                             1462.72  1508.52  1516.05  1527.52  1533.17
                             1556.26  1574.44  1609.26  1639.63  1648.22
                             1665.53  1702.32  1703.04  1746.29  1747.27
                             1773.35  1775.11  1795.62  1808.91  1825.57
                             1856.47  1899.31  1941.84  1956.43  1962.09
                             2005.40  2029.69  2038.54  2084.63  2086.40
                             2099.74  2116.09  2124.35  2152.28  2153.32
                             2162.26  2166.44  2167.51  2176.01  2180.96
                             2210.79  2224.36  2359.71  2392.74  4400.27
                             4427.70  4462.12  4492.62  4495.95  4501.76
                             4520.58  4558.15  4596.15  4598.79  4612.14
                             4626.69  4627.88  4633.49  4639.47  4641.75
                             4656.97  4661.84  4663.06  4868.04  5063.11

 Zero-point correction=                           0.347337 (Hartree/Particle)
 Thermal correction to Energy=                    0.368897
 Thermal correction to Enthalpy=                  0.369841
 Thermal correction to Gibbs Free Energy=         0.295539
 Sum of electronic and zero-point Energies=          -1714.157109
 Sum of electronic and thermal Energies=             -1714.135549
 Sum of electronic and thermal Enthalpies=           -1714.134605
 Sum of electronic and thermal Free Energies=        -1714.208907

                     E (Thermal)             CV                S
                      KCal/Mol        Cal/Mol-Kelvin    Cal/Mol-Kelvin
 Total                  231.486             82.241            156.382
 Electronic               0.000              0.000              0.000
 Translational            0.889              2.981             43.305
 Rotational               0.889              2.981             34.625
 Vibrational            229.709             76.279             78.453
 Vibration     1          0.593              1.986              6.622
 Vibration     2          0.594              1.982              5.509
 Vibration     3          0.595              1.980              5.130
 Vibration     4          0.595              1.978              4.878
 Vibration     5          0.596              1.977              4.766
 Vibration     6          0.597              1.972              4.370
 Vibration     7          0.602              1.957              3.676
 Vibration     8          0.609              1.931              3.069
 Vibration     9          0.619              1.901              2.657
 Vibration    10          0.623              1.888              2.518
 Vibration    11          0.629              1.867              2.327
 Vibration    12          0.632              1.859              2.268
 Vibration    13          0.642              1.828              2.058
 Vibration    14          0.645              1.816              1.991
 Vibration    15          0.662              1.766              1.745
 Vibration    16          0.667              1.749              1.674
 Vibration    17          0.673              1.732              1.608
 Vibration    18          0.685              1.695              1.482
 Vibration    19          0.695              1.666              1.394
 Vibration    20          0.711              1.621              1.272
 Vibration    21          0.722              1.589              1.198
 Vibration    22          0.732              1.560              1.134
 Vibration    23          0.736              1.551              1.115
 Vibration    24          0.745              1.525              1.062
 Vibration    25          0.774              1.449              0.927
 Vibration    26          0.784              1.424              0.887
 Vibration    27          0.793              1.400              0.851
 Vibration    28          0.806              1.369              0.807
 Vibration    29          0.814              1.349              0.780
 Vibration    30          0.842              1.282              0.695
 Vibration    31          0.851              1.260              0.670
 Vibration    32          0.879              1.197              0.601
 Vibration    33          0.928              1.093              0.502
 Vibration    34          0.939              1.070              0.481
 Vibration    35          0.954              1.039              0.456
 Vibration    36          0.971              1.007              0.430

                           ! Non-Optimized Parameters !
 Normal termination of Gaussian 16 at Thu Sep 24 02:43:19 2020.

 ----------------------------------------------------------------------
 #p b3lyp/6-31G(d) scrf=(iefpcm,read,solvent=water) geom=allcheck guess
 =read
 ----------------------------------------------------------------------

 Structure from the checkpoint file:  "SM40.b.8.pdb.xyz.mst.b.w.chk"
 ----------------
 SM40.b.8.pdb.xyz
 ----------------
 Charge =  1 Multiplicity = 1

 SCF Done:  E(RB3LYP) =  -1714.50415592     A.U. after    7 cycles
 Normal termination of Gaussian 16 at Thu Sep 24 02:44:19 2020.

 -----------------------------
 #p B3LYP/6-31G* geom=allcheck
 -----------------------------

 Structure from the checkpoint file:  "SM40.b.8.pdb.xyz.mst.b.w.chk"
 ----------------
 SM40.b.8.pdb.xyz
 ----------------
 Charge =  1 Multiplicity = 1

 SCF Done:  E(RB3LYP) =  -1714.38508253     A.U. after   16 cycles
 Normal termination of Gaussian 16 at Thu Sep 24 02:45:35 2020.
 Gaussian 16:  ES64L-G16RevB.01 20-Dec-2017

 ----------------------------------------------------------------------
 #p mp2/aug-cc-pVDZ scf=(MaxCycle=2000,NoVarAcc,NoIncFock) maxdisk=120G
 B geom=allcheck
 ----------------------------------------------------------------------

 Structure from the checkpoint file:  "SM40.b.8.pdb.xyz.mst.b.w.chk"
 ----------------
 SM40.b.8.pdb.xyz
 ----------------
 Charge =  1 Multiplicity = 1

                         Standard orientation:
 ---------------------------------------------------------------------
 Center     Atomic      Atomic             Coordinates (Angstroms)
 Number     Number       Type             X           Y           Z
 ---------------------------------------------------------------------
      1          8           0       -1.753791    2.116541    0.345256
      2         16           0       -0.366610    1.868301    0.702443
      3          7           0       -0.041189    0.279643    0.670938
      4          6           0       -1.014265   -0.790946    0.352182
      5          6           0       -1.706626   -0.639861   -1.039229
      6         16           0       -3.312107   -1.066503   -0.278177
      7          6           0       -2.317380   -0.776267    1.226962
      8          8           0       -4.370522   -0.067988   -0.508053
      9          8           0       -3.636589   -2.496212   -0.454144
     10          6           0       -0.304518   -2.150755    0.508709
     11          6           0        0.808709   -2.502230   -0.493290
     12          6           0        2.170015   -1.872752   -0.272854
     13          6           0        2.816287   -1.944434    0.970254
     14          6           0        4.096169   -1.416330    1.143552
     15          6           0        4.759769   -0.814377    0.071580
     16          6           0        4.131261   -0.743925   -1.172365
     17          6           0        2.846318   -1.265893   -1.338861
     18          7           0        0.556891    2.514540   -0.787867
     19          6           0        0.124784    3.923118   -1.059885
     20          6           0        2.034698    2.383639   -0.602971
     21          8           0        0.318754    2.528286    1.799269
     22          1           0        0.722553    0.032774    1.300614
     23          1           0       -1.381141   -1.325169   -1.818524
     24          1           0       -1.753634    0.380966   -1.412855
     25          1           0       -2.398711   -1.559493    1.979178
     26          1           0       -2.564905    0.201074    1.639855
     27          1           0       -1.093428   -2.901906    0.414148
     28          1           0        0.062379   -2.228509    1.537837
     29          1           0        0.474530   -2.284335   -1.512920
     30          1           0        0.922743   -3.591887   -0.447696
     31          1           0        2.317683   -2.423017    1.808192
     32          1           0        4.577909   -1.481704    2.113818
     33          1           0        5.756947   -0.408228    0.204447
     34          1           0        4.637664   -0.281877   -2.013788
     35          1           0        2.362315   -1.211354   -2.309595
     36          1           0       -0.958845    3.941596   -1.140578
     37          1           0        0.582979    4.229570   -1.998480
     38          1           0        0.468188    4.555072   -0.243605
     39          1           0        2.286557    1.330310   -0.505886
     40          1           0        2.320166    2.945719    0.283088
     41          1           0        2.512391    2.796545   -1.489929
     42          1           0        0.261065    1.916876   -1.578415
 ---------------------------------------------------------------------

 SCF Done:  E(RHF) =  -1707.58616572     A.U. after   16 cycles
 E2 =    -0.3331498788D+01 EUMP2 =    -0.17109176645038D+04

 The electronic state is 1-A.
 Alpha  occ. eigenvalues --  -92.44669 -92.30922 -20.76354 -20.76241 -20.66282
 Alpha  occ. eigenvalues --  -20.66266 -15.88996 -15.80204 -11.47864 -11.46187
 Alpha  occ. eigenvalues --  -11.46069 -11.41656 -11.40743 -11.38724 -11.37620
 Alpha  occ. eigenvalues --  -11.37200 -11.36534 -11.36423 -11.36337 -11.36217
 Alpha  occ. eigenvalues --  -11.35852  -9.41090  -9.28113  -7.09624  -7.09580
 Alpha  occ. eigenvalues --   -7.09545  -6.96598  -6.96516  -6.96464  -1.67199
 Alpha  occ. eigenvalues --   -1.54867  -1.54518  -1.48890  -1.43797  -1.43168
 Alpha  occ. eigenvalues --   -1.28984  -1.27932  -1.19973  -1.17598  -1.14139
 Alpha  occ. eigenvalues --   -1.13855  -1.12173  -1.10418  -1.06968  -1.02560
 Alpha  occ. eigenvalues --   -0.98224  -0.96006  -0.95058  -0.91941  -0.91014
 Alpha  occ. eigenvalues --   -0.90027  -0.88979  -0.85394  -0.83130  -0.82103
 Alpha  occ. eigenvalues --   -0.81661  -0.80423  -0.78925  -0.77623  -0.76336
 Alpha  occ. eigenvalues --   -0.76138  -0.75575  -0.74890  -0.74557  -0.74375
 Alpha  occ. eigenvalues --   -0.73338  -0.73189  -0.72198  -0.71140  -0.70977
 Alpha  occ. eigenvalues --   -0.70467  -0.68953  -0.68430  -0.67226  -0.66729
 Alpha  occ. eigenvalues --   -0.66160  -0.64838  -0.63872  -0.61734  -0.60787
 Alpha  occ. eigenvalues --   -0.60312  -0.59897  -0.58859  -0.57671  -0.56564
 Alpha  occ. eigenvalues --   -0.53310  -0.46129  -0.45097
 Alpha virt. eigenvalues --   -0.08769  -0.06389  -0.05757  -0.05304  -0.04165
 Alpha virt. eigenvalues --   -0.04113  -0.03567  -0.03276  -0.02881  -0.02682
 Alpha virt. eigenvalues --   -0.02345  -0.01733  -0.01638  -0.01221  -0.01180

 Mulliken charges:
               1
     1  O   -1.078897
     2  S    2.841747
     3  N   -0.713647
     4  C    0.125461
     5  C    0.370478
     6  S    2.959748
     7  C    0.429863
     8  O   -1.221901
     9  O   -1.238407
    10  C    0.690606
    11  C    0.404790
    12  C    0.468843
    13  C    0.684227
    14  C    0.111675
    15  C    0.769451
    16  C    0.317046
    17  C    0.675654
    18  N   -0.735589
    19  C    0.848785
    20  C    1.079446
    21  O   -1.091582
    22  H   -0.035548
    23  H   -0.246938
    24  H   -0.406339
    25  H   -0.302426
    26  H   -0.301665
    27  H   -0.122102
    28  H   -0.132532
    29  H   -0.313334
    30  H   -0.037483
    31  H   -0.769216
    32  H   -0.495417
    33  H   -0.473072
    34  H   -0.533123
    35  H   -0.792953
    36  H   -0.116893
    37  H   -0.137173
    38  H   -0.039660
    39  H   -0.508375
    40  H   -0.014500
    41  H   -0.126453
    42  H    0.207405
 Sum of Mulliken charges =   1.00000

 Dipole moment (field-independent basis, Debye):
    X=              9.8647    Y=              6.7773    Z=             -2.2173  Tot=             12.1721
 Quadrupole moment (field-independent basis, Debye-Ang):
   XX=           -147.6624   YY=           -109.8108   ZZ=           -122.7619
   XY=              2.7938   XZ=             -8.3155   YZ=            -20.3938

 Normal termination of Gaussian 16 at Thu Sep 24 04:18:37 2020.
