 Gaussian 16, Revision B.01,

 ----------------------------------------------------------------------
 #p b3lyp/6-31G(d) opt freq NoSymm scf=(MaxCycle=2000,NoVarAcc,NoIncFoc
 k) scrf=(iefpcm,read,solvent=water)
 ----------------------------------------------------------------------

 ----------------
 SM40.n.6.pdb.xyz
 ----------------
 Symbolic Z-matrix:
 Charge =  0 Multiplicity = 1

 SCF Done:  E(RB3LYP) =  -1714.06316422     A.U. after   13 cycles
 SCF Done:  E(RB3LYP) =  -1714.06275442     A.U. after   10 cycles
 SCF Done:  E(RB3LYP) =  -1714.06333431     A.U. after   10 cycles
 SCF Done:  E(RB3LYP) =  -1714.06322514     A.U. after   10 cycles
 SCF Done:  E(RB3LYP) =  -1714.06322666     A.U. after    9 cycles
 SCF Done:  E(RB3LYP) =  -1714.06333177     A.U. after    9 cycles
 SCF Done:  E(RB3LYP) =  -1714.06333080     A.U. after    6 cycles
 SCF Done:  E(RB3LYP) =  -1714.06333044     A.U. after    5 cycles
 SCF Done:  E(RB3LYP) =  -1714.06333031     A.U. after    4 cycles
 SCF Done:  E(RB3LYP) =  -1714.06333026     A.U. after    4 cycles
 SCF Done:  E(RB3LYP) =  -1714.06322010     A.U. after    8 cycles
 SCF Done:  E(RB3LYP) =  -1714.06320925     A.U. after    8 cycles
 SCF Done:  E(RB3LYP) =  -1714.06321136     A.U. after    7 cycles
 SCF Done:  E(RB3LYP) =  -1714.06320968     A.U. after    8 cycles
 SCF Done:  E(RB3LYP) =  -1714.06320973     A.U. after    7 cycles
 SCF Done:  E(RB3LYP) =  -1714.06320974     A.U. after    7 cycles
 Optimization completed.
    -- Stationary point found.
 Normal termination of Gaussian 16 at Tue Sep 22 07:04:55 2020.

 --------------------------------------------------------------------
 #P Geom=AllCheck Guess=TCheck SCRF=Check GenChk RB3LYP/6-31G(d) Freq
 --------------------------------------------------------------------

 Structure from the checkpoint file:  "SM40.n.6.pdb.xyz.mst.n.w.chk"
 ----------------
 SM40.n.6.pdb.xyz
 ----------------
 Charge =  0 Multiplicity = 1

 SCF Done:  E(RB3LYP) =  -1714.06320974     A.U. after    1 cycles

  Exact polarizability: 263.410  10.228 262.007 -34.966   0.874 220.364
 Approx polarizability: 276.709   9.088 304.855 -38.359   1.793 257.200

                      1                      2                      3
                      A                      A                      A
 Frequencies --     13.6448                26.5008                31.8165
 Red. masses --      3.9758                 5.0451                 4.2965
 Frc consts  --      0.0004                 0.0021                 0.0026
 IR Inten    --      1.1301                 3.8064                 0.4856

                      4                      5                      6
                      A                      A                      A
 Frequencies --     46.4164                54.6881                65.2092
 Red. masses --      4.8806                 4.0413                 6.7776
 Frc consts  --      0.0062                 0.0071                 0.0170
 IR Inten    --      0.5223                 1.9955                 4.6892

                      7                      8                      9
                      A                      A                      A
 Frequencies --     91.4068               128.0729               145.7726
 Red. masses --      3.7475                 5.1250                 5.2169
 Frc consts  --      0.0184                 0.0495                 0.0653
 IR Inten    --      7.5198                 6.8799                 1.4799

                     10                     11                     12
                      A                      A                      A
 Frequencies --    155.2351               182.0833               190.9226
 Red. masses --      2.7201                 2.1608                 1.3591
 Frc consts  --      0.0386                 0.0422                 0.0292
 IR Inten    --      3.9276                 1.2001                 2.2007

                     13                     14                     15
                      A                      A                      A
 Frequencies --    198.4692               202.6386               224.4428
 Red. masses --      2.9322                 3.7791                 3.1236
 Frc consts  --      0.0681                 0.0914                 0.0927
 IR Inten    --      9.7858                14.6801                 9.1116

                     16                     17                     18
                      A                      A                      A
 Frequencies --    227.1801               295.4916               306.7730
 Red. masses --      3.6242                 4.5874                 3.2221
 Frc consts  --      0.1102                 0.2360                 0.1787
 IR Inten    --      1.3415                 5.9243                15.2452

                     19                     20                     21
                      A                      A                      A
 Frequencies --    323.1864               334.6146               347.9050
 Red. masses --      3.0817                 2.3439                 2.6271
 Frc consts  --      0.1896                 0.1546                 0.1874
 IR Inten    --     17.3007                 1.4119                 5.6842

                     22                     23                     24
                      A                      A                      A
 Frequencies --    358.8165               378.3468               395.8122
 Red. masses --      2.9552                 4.9538                 3.0465
 Frc consts  --      0.2242                 0.4178                 0.2812
 IR Inten    --      7.0407                32.9645                10.1569

                     25                     26                     27
                      A                      A                      A
 Frequencies --    401.2177               417.2581               464.0147
 Red. masses --      3.6190                 2.9676                 4.7383
 Frc consts  --      0.3432                 0.3044                 0.6011
 IR Inten    --     15.5407                 0.1031                32.3417

                     28                     29                     30
                      A                      A                      A
 Frequencies --    473.0199               482.7369               500.9366
 Red. masses --      3.7770                 3.5221                 3.4074
 Frc consts  --      0.4979                 0.4836                 0.5038
 IR Inten    --     32.5510                29.3797                 7.8632

                     31                     32                     33
                      A                      A                      A
 Frequencies --    516.4228               562.3232               567.6738
 Red. masses --      3.8470                 5.3458                 4.5481
 Frc consts  --      0.6045                 0.9959                 0.8635
 IR Inten    --     15.8630                62.0696                42.9192

                     34                     35                     36
                      A                      A                      A
 Frequencies --    584.0847               633.7107               649.5845
 Red. masses --      4.4786                 6.3238                 2.8939
 Frc consts  --      0.9002                 1.4963                 0.7195
 IR Inten    --     42.4646                 2.5949               125.7511

                     37                     38                     39
                      A                      A                      A
 Frequencies --    682.4900               715.3289               724.2647
 Red. masses --      4.4876                 2.1618                 3.2812
 Frc consts  --      1.2316                 0.6517                 1.0141
 IR Inten    --    113.5480                20.6462               161.9670

                     40                     41                     42
                      A                      A                      A
 Frequencies --    755.5983               759.3279               781.6340
 Red. masses --      5.9331                 1.7794                 2.6208
 Frc consts  --      1.9958                 0.6045                 0.9434
 IR Inten    --     84.1647                55.0398                 7.5094

                     43                     44                     45
                      A                      A                      A
 Frequencies --    806.9395               814.6273               834.9493
 Red. masses --      1.6291                 3.3715                 3.0850
 Frc consts  --      0.6250                 1.3182                 1.2671
 IR Inten    --     17.6992                 5.1352                55.1861

                     46                     47                     48
                      A                      A                      A
 Frequencies --    867.1536               891.0908               918.9925
 Red. masses --      1.2526                 2.4218                 1.9141
 Frc consts  --      0.5550                 1.1330                 0.9524
 IR Inten    --      0.4806                71.9918               112.7265

                     49                     50                     51
                      A                      A                      A
 Frequencies --    933.6561               944.0533               954.3627
 Red. masses --      1.9203                 2.8023                 1.9222
 Frc consts  --      0.9863                 1.4715                 1.0315
 IR Inten    --      4.9028               234.7847                15.1918

                     52                     53                     54
                      A                      A                      A
 Frequencies --    980.2037              1006.1315              1013.6133
 Red. masses --      1.3651                 1.2801                 1.9043
 Frc consts  --      0.7728                 0.7635                 1.1527
 IR Inten    --      1.2545                 1.0456                21.8820

                     55                     56                     57
                      A                      A                      A
 Frequencies --   1016.8238              1034.3595              1057.7628
 Red. masses --      5.3760                 2.6355                 1.8390
 Frc consts  --      3.2749                 1.6613                 1.2123
 IR Inten    --      0.2838                12.2322                 4.4398

                     58                     59                     60
                      A                      A                      A
 Frequencies --   1060.1582              1068.8549              1075.2129
 Red. masses --      1.2390                 1.6206                 4.1905
 Frc consts  --      0.8205                 1.0908                 2.8543
 IR Inten    --     14.0935                35.9904                96.0135

                     61                     62                     63
                      A                      A                      A
 Frequencies --   1086.7585              1103.2462              1115.9742
 Red. masses --      2.3892                 5.2769                 2.2021
 Frc consts  --      1.6625                 3.7842                 1.6159
 IR Inten    --     71.8311               387.1073                44.4044

                     64                     65                     66
                      A                      A                      A
 Frequencies --   1129.3411              1162.9841              1173.6772
 Red. masses --      1.2317                 2.7582                 1.3704
 Frc consts  --      0.9256                 2.1980                 1.1123
 IR Inten    --      3.6443                19.4657                 3.4365

                     67                     68                     69
                      A                      A                      A
 Frequencies --   1185.3763              1192.9673              1207.1185
 Red. masses --      1.0958                 1.3182                 1.1466
 Frc consts  --      0.9072                 1.1053                 0.9844
 IR Inten    --      0.1340                 7.4271                 1.5142

                     70                     71                     72
                      A                      A                      A
 Frequencies --   1218.6499              1226.6049              1229.7933
 Red. masses --      3.2370                 2.1174                 2.1762
 Frc consts  --      2.8323                 1.8770                 1.9391
 IR Inten    --     18.7428                24.9458               138.6462

                     73                     74                     75
                      A                      A                      A
 Frequencies --   1236.6527              1255.1705              1271.7312
 Red. masses --      1.5207                 5.6053                 6.4973
 Frc consts  --      1.3702                 5.2031                 6.1912
 IR Inten    --     18.7410               361.2681               314.5311

                     76                     77                     78
                      A                      A                      A
 Frequencies --   1280.2535              1284.7512              1311.0496
 Red. masses --      2.0195                 2.1153                 1.2280
 Frc consts  --      1.9503                 2.0571                 1.2437
 IR Inten    --     88.2713                78.9169                 5.2727

                     79                     80                     81
                      A                      A                      A
 Frequencies --   1353.5233              1366.5334              1388.6494
 Red. masses --      2.7253                 1.6524                 1.4037
 Frc consts  --      2.9416                 1.8180                 1.5949
 IR Inten    --      7.5996                 0.7174                 6.7107

                     82                     83                     84
                      A                      A                      A
 Frequencies --   1413.9702              1447.3800              1452.0158
 Red. masses --      1.3757                 1.1008                 1.1342
 Frc consts  --      1.6205                 1.3587                 1.4089
 IR Inten    --     31.3320                36.3378                 0.8265

                     85                     86                     87
                      A                      A                      A
 Frequencies --   1464.5967              1470.0359              1490.8805
 Red. masses --      1.0974                 1.1504                 1.2058
 Frc consts  --      1.3869                 1.4647                 1.5792
 IR Inten    --     13.5815                 4.7675                58.4606

                     88                     89                     90
                      A                      A                      A
 Frequencies --   1499.8956              1501.1789              1510.6139
 Red. masses --      2.0307                 1.0525                 1.0530
 Frc consts  --      2.6916                 1.3974                 1.4157
 IR Inten    --      7.4577                 4.0684                27.2635

                     91                     92                     93
                      A                      A                      A
 Frequencies --   1512.1279              1512.8269              1516.6250
 Red. masses --      1.1021                 1.0516                 1.0889
 Frc consts  --      1.4847                 1.4181                 1.4757
 IR Inten    --     13.2756                17.1980                 5.9741

                     94                     95                     96
                      A                      A                      A
 Frequencies --   1527.6183              1543.7154              1641.6802
 Red. masses --      1.0503                 2.2053                 5.4729
 Frc consts  --      1.4440                 3.0964                 8.6905
 IR Inten    --     13.7907                17.8001                 1.7140

                     97                     98                     99
                      A                      A                      A
 Frequencies --   1662.4247              3057.8417              3062.7398
 Red. masses --      5.6082                 1.0454                 1.0436
 Frc consts  --      9.1318                 5.7593                 5.7679
 IR Inten    --      8.3044                60.3753                77.5733

                    100                    101                    102
                      A                      A                      A
 Frequencies --   3065.4936              3079.4266              3113.7707
 Red. masses --      1.0659                 1.0612                 1.0974
 Frc consts  --      5.9015                 5.9288                 6.2687
 IR Inten    --     30.9203                33.9852                26.4661

                    103                    104                    105
                      A                      A                      A
 Frequencies --   3124.2480              3143.9211              3144.5881
 Red. masses --      1.1032                 1.0574                 1.0931
 Frc consts  --      6.3445                 6.1576                 6.3683
 IR Inten    --     42.1142                 5.5194                39.9444

                    106                    107                    108
                      A                      A                      A
 Frequencies --   3149.4985              3151.3200              3190.2658
 Red. masses --      1.0952                 1.0582                 1.0879
 Frc consts  --      6.4006                 6.1918                 6.5239
 IR Inten    --     13.1739                 6.9992                20.6530

                    109                    110                    111
                      A                      A                      A
 Frequencies --   3194.1983              3198.4883              3206.9836
 Red. masses --      1.1039                 1.0865                 1.1016
 Frc consts  --      6.6362                 6.5487                 6.6750
 IR Inten    --     11.9158                 1.9414                 5.9915

                    112                    113                    114
                      A                      A                      A
 Frequencies --   3210.2919              3217.6248              3219.2093
 Red. masses --      1.0902                 1.0939                 1.1111
 Frc consts  --      6.6197                 6.6726                 6.7843
 IR Inten    --     27.7255                41.8912                24.5283

                    115                    116                    117
                      A                      A                      A
 Frequencies --   3226.4114              3227.5124              3478.3002
 Red. masses --      1.0974                 1.1102                 1.0752
 Frc consts  --      6.7306                 6.8137                 7.6640
 IR Inten    --     32.4588                 6.8826               102.7759

 - Thermochemistry -
 -------------------
 Temperature   298.150 Kelvin.  Pressure   1.00000 Atm.
 Atom     1 has atomic number  8 and mass  15.99491

 Molecular mass:   332.08645 amu.
 Principal axes and moments of inertia in atomic units:
                           1         2         3
     Eigenvalues --  3960.10513********************
           X            0.99995   0.00866  -0.00545
           Y           -0.00860   0.99991   0.00991
           Z            0.00554  -0.00987   0.99994
 This molecule is an asymmetric top.
 Rotational symmetry number  1.
 Warning -- assumption of classical behavior for rotation
           may cause significant error
 Rotational temperatures (Kelvin)      0.02187     0.00758     0.00655
 Rotational constants (GHZ):           0.45573     0.15795     0.13639
 Zero-point vibrational energy     873791.6 (Joules/Mol)
                                  208.84120 (Kcal/Mol)
 Warning -- explicit consideration of  34 degrees of freedom as
           vibrations may cause significant error
 Vibrational temperatures:     19.63    38.13    45.78    66.78    78.68
          (Kelvin)             93.82   131.51   184.27   209.73   223.35
                              261.98   274.70   285.55   291.55   322.92
                              326.86   425.15   441.38   464.99   481.44
                              500.56   516.26   544.36   569.49   577.26
                              600.34   667.61   680.57   694.55   720.74
                              743.02   809.06   816.76   840.37   911.77
                              934.61   981.95  1029.20  1042.06  1087.14
                             1092.50  1124.60  1161.01  1172.07  1201.31
                             1247.64  1282.08  1322.23  1343.32  1358.28
                             1373.12  1410.29  1447.60  1458.36  1462.98
                             1488.21  1521.88  1525.33  1537.84  1546.99
                             1563.60  1587.33  1605.64  1624.87  1673.27
                             1688.66  1705.49  1716.41  1736.77  1753.37
                             1764.81  1769.40  1779.27  1805.91  1829.74
                             1842.00  1848.47  1886.31  1947.42  1966.14
                             1997.96  2034.39  2082.46  2089.13  2107.23
                             2115.05  2145.04  2158.02  2159.86  2173.44
                             2175.61  2176.62  2182.09  2197.90  2221.06
                             2362.01  2391.86  4399.55  4406.60  4410.56
                             4430.61  4480.02  4495.10  4523.40  4524.36
                             4531.43  4534.05  4590.08  4595.74  4601.91
                             4614.13  4618.89  4629.44  4631.72  4642.09
                             4643.67  5004.50

 Zero-point correction=                           0.332810 (Hartree/Particle)
 Thermal correction to Energy=                    0.354198
 Thermal correction to Enthalpy=                  0.355142
 Thermal correction to Gibbs Free Energy=         0.280236
 Sum of electronic and zero-point Energies=          -1713.730400
 Sum of electronic and thermal Energies=             -1713.709012
 Sum of electronic and thermal Enthalpies=           -1713.708068
 Sum of electronic and thermal Free Energies=        -1713.782974

                     E (Thermal)             CV                S
                      KCal/Mol        Cal/Mol-Kelvin    Cal/Mol-Kelvin
 Total                  222.262             81.311            157.653
 Electronic               0.000              0.000              0.000
 Translational            0.889              2.981             43.296
 Rotational               0.889              2.981             34.747
 Vibrational            220.485             75.349             79.609
 Vibration     1          0.593              1.986              7.394
 Vibration     2          0.593              1.984              6.075
 Vibration     3          0.594              1.983              5.713
 Vibration     4          0.595              1.979              4.965
 Vibration     5          0.596              1.976              4.640
 Vibration     6          0.597              1.971              4.293
 Vibration     7          0.602              1.955              3.630
 Vibration     8          0.611              1.925              2.975
 Vibration     9          0.617              1.907              2.727
 Vibration    10          0.620              1.897              2.607
 Vibration    11          0.630              1.864              2.307
 Vibration    12          0.634              1.852              2.219
 Vibration    13          0.637              1.842              2.147
 Vibration    14          0.639              1.836              2.109
 Vibration    15          0.649              1.804              1.923
 Vibration    16          0.651              1.800              1.901
 Vibration    17          0.690              1.682              1.442
 Vibration    18          0.697              1.661              1.380
 Vibration    19          0.708              1.629              1.294
 Vibration    20          0.716              1.606              1.238
 Vibration    21          0.726              1.580              1.176
 Vibration    22          0.734              1.557              1.127
 Vibration    23          0.749              1.516              1.046
 Vibration    24          0.763              1.479              0.978
 Vibration    25          0.767              1.467              0.958
 Vibration    26          0.780              1.433              0.901
 Vibration    27          0.822              1.330              0.755
 Vibration    28          0.830              1.310              0.729
 Vibration    29          0.839              1.288              0.703
 Vibration    30          0.856              1.248              0.656
 Vibration    31          0.871              1.214              0.618
 Vibration    32          0.918              1.113              0.519
 Vibration    33          0.924              1.101              0.509
 Vibration    34          0.941              1.066              0.478

                           ! Non-Optimized Parameters !
 Normal termination of Gaussian 16 at Tue Sep 22 07:25:06 2020.

 ----------------------------------------------------------------------
 #p b3lyp/6-31G(d) scrf=(iefpcm,read,solvent=water) geom=allcheck guess
 =read
 ----------------------------------------------------------------------

 Structure from the checkpoint file:  "SM40.n.6.pdb.xyz.mst.n.w.chk"
 ----------------
 SM40.n.6.pdb.xyz
 ----------------
 Charge =  0 Multiplicity = 1

 SCF Done:  E(RB3LYP) =  -1714.06320815     A.U. after    4 cycles
 Normal termination of Gaussian 16 at Tue Sep 22 07:25:42 2020.

 -----------------------------
 #p B3LYP/6-31G* geom=allcheck
 -----------------------------

 Structure from the checkpoint file:  "SM40.n.6.pdb.xyz.mst.n.w.chk"
 ----------------
 SM40.n.6.pdb.xyz
 ----------------
 Charge =  0 Multiplicity = 1

 SCF Done:  E(RB3LYP) =  -1714.03405352     A.U. after   15 cycles
 Normal termination of Gaussian 16 at Tue Sep 22 07:26:53 2020.
 Gaussian 16:  ES64L-G16RevB.01 20-Dec-2017

 ----------------------------------------------------------------------
 #p mp2/aug-cc-pVDZ scf=(MaxCycle=2000,NoVarAcc,NoIncFock) maxdisk=120G
 B geom=allcheck
 ----------------------------------------------------------------------

 Structure from the checkpoint file:  "SM40.n.6.pdb.xyz.mst.n.w.chk"
 ----------------
 SM40.n.6.pdb.xyz
 ----------------
 Charge =  0 Multiplicity = 1

                         Standard orientation:
 ---------------------------------------------------------------------
 Center     Atomic      Atomic             Coordinates (Angstroms)
 Number     Number       Type             X           Y           Z
 ---------------------------------------------------------------------
      1          8           0       -3.107276    1.122854    0.071139
      2         16           0       -2.726539   -0.207794   -0.433576
      3          7           0       -1.450714   -0.745839    0.521681
      4          6           0       -0.184158    0.010780    0.654571
      5          6           0       -0.382447    1.407130    1.334241
      6         16           0        0.385033    2.242063   -0.097582
      7          6           0        0.435815    0.520173   -0.700180
      8          8           0       -0.542716    3.103698   -0.856473
      9          8           0        1.725463    2.779599    0.221243
     10          6           0        0.731018   -0.917266    1.483331
     11          6           0        2.172815   -0.433054    1.749346
     12          6           0        3.184361   -0.772013    0.670177
     13          6           0        3.940005    0.230500    0.048589
     14          6           0        4.898566   -0.088676   -0.916715
     15          6           0        5.117078   -1.419352   -1.275192
     16          6           0        4.369532   -2.428375   -0.661937
     17          6           0        3.414198   -2.105784    0.301397
     18          7           0       -3.811893   -1.414179   -0.041630
     19          6           0       -4.384839   -1.306891    1.309779
     20          6           0       -4.791914   -1.744261   -1.090186
     21          8           0       -2.454702   -0.321703   -1.876261
     22          1           0       -1.274176   -1.721450    0.266855
     23          1           0        0.198831    1.556747    2.242700
     24          1           0       -1.419233    1.707404    1.468911
     25          1           0        1.451731    0.189809   -0.909378
     26          1           0       -0.214186    0.380476   -1.562467
     27          1           0        0.777250   -1.891870    0.987061
     28          1           0        0.222317   -1.075213    2.438613
     29          1           0        2.493331   -0.908005    2.683308
     30          1           0        2.192590    0.643736    1.941982
     31          1           0        3.757970    1.266796    0.314760
     32          1           0        5.471704    0.703519   -1.387889
     33          1           0        5.861180   -1.669535   -2.024332
     34          1           0        4.533288   -3.466212   -0.931147
     35          1           0        2.843877   -2.899291    0.776738
     36          1           0       -3.587997   -1.104570    2.023506
     37          1           0       -4.837208   -2.270011    1.549397
     38          1           0       -5.148462   -0.523821    1.374111
     39          1           0       -4.281576   -1.849156   -2.044721
     40          1           0       -5.583472   -0.990616   -1.174271
     41          1           0       -5.241742   -2.699960   -0.816084
 ---------------------------------------------------------------------

 SCF Done:  E(RHF) =  -1707.24176051     A.U. after   16 cycles
 E2 =    -0.3324702815D+01 EUMP2 =    -0.17105664633291D+04

 The electronic state is 1-A.
 Alpha  occ. eigenvalues --  -92.25473 -92.18966 -20.57143 -20.56937 -20.55204
 Alpha  occ. eigenvalues --  -20.54664 -15.63403 -15.62949 -11.34145 -11.29161
 Alpha  occ. eigenvalues --  -11.28779 -11.28467 -11.28034 -11.27169 -11.25845
 Alpha  occ. eigenvalues --  -11.25723 -11.25071 -11.24869 -11.24743 -11.24609
 Alpha  occ. eigenvalues --  -11.24105  -9.21994  -9.16236  -6.90525  -6.90497
 Alpha  occ. eigenvalues --   -6.90466  -6.84727  -6.84631  -6.84566  -1.47905
 Alpha  occ. eigenvalues --   -1.43094  -1.34734  -1.31823  -1.28095  -1.26030
 Alpha  occ. eigenvalues --   -1.16666  -1.14213  -1.08138  -1.02237  -1.01829
 Alpha  occ. eigenvalues --   -0.99498  -0.97684  -0.97167  -0.91866  -0.85235
 Alpha  occ. eigenvalues --   -0.83354  -0.82700  -0.80142  -0.77732  -0.74662
 Alpha  occ. eigenvalues --   -0.71265  -0.70957  -0.70509  -0.68833  -0.67492
 Alpha  occ. eigenvalues --   -0.67257  -0.64976  -0.64715  -0.63766  -0.63502
 Alpha  occ. eigenvalues --   -0.62682  -0.62020  -0.60833  -0.59884  -0.58992
 Alpha  occ. eigenvalues --   -0.58872  -0.58228  -0.57146  -0.56845  -0.56387
 Alpha  occ. eigenvalues --   -0.55432  -0.53170  -0.52699  -0.52054  -0.51152
 Alpha  occ. eigenvalues --   -0.50007  -0.49251  -0.48929  -0.48702  -0.47725
 Alpha  occ. eigenvalues --   -0.47559  -0.46432  -0.45121  -0.44207  -0.42238
 Alpha  occ. eigenvalues --   -0.41409  -0.34279  -0.33497
 Alpha virt. eigenvalues --    0.01872   0.02976   0.03126   0.03898   0.04373
 Alpha virt. eigenvalues --    0.04760   0.04873   0.05413   0.05722   0.06300
 Alpha virt. eigenvalues --    0.06641   0.06996   0.07339   0.07662   0.08498

 Mulliken charges:
               1
     1  O   -1.246257
     2  S    3.545907
     3  N   -1.196892
     4  C   -0.016792
     5  C    0.299661
     6  S    3.051170
     7  C    0.492820
     8  O   -1.259798
     9  O   -1.327397
    10  C    0.865902
    11  C    0.291726
    12  C    0.825903
    13  C    0.795282
    14  C    0.034193
    15  C    0.739515
    16  C    0.087559
    17  C    0.469348
    18  N   -1.097641
    19  C    0.761311
    20  C    0.850456
    21  O   -1.243459
    22  H   -0.019195
    23  H   -0.368179
    24  H   -0.274242
    25  H   -0.358018
    26  H   -0.386026
    27  H   -0.228945
    28  H   -0.137556
    29  H   -0.126616
    30  H   -0.262699
    31  H   -0.695534
    32  H   -0.469959
    33  H   -0.448195
    34  H   -0.494402
    35  H   -0.736722
    36  H   -0.151842
    37  H   -0.185368
    38  H   -0.041442
    39  H   -0.159479
    40  H   -0.040142
    41  H   -0.137953
 Sum of Mulliken charges =  -0.00000

 Dipole moment (field-independent basis, Debye):
    X=             -1.5687    Y=             -8.8545    Z=              4.0432  Tot=              9.8596
 Quadrupole moment (field-independent basis, Debye-Ang):
   XX=           -128.7248   YY=           -155.3116   ZZ=           -139.6034
   XY=              9.8621   XZ=            -10.5464   YZ=              5.2132

 Normal termination of Gaussian 16 at Tue Sep 22 08:59:29 2020.
