 Gaussian 16, Revision B.01,

 ----------------------------------------------------------------------
 #p b3lyp/6-31G(d) opt freq NoSymm scf=(MaxCycle=2000,NoVarAcc,NoIncFoc
 k) scrf=(iefpcm,read,solvent=water)
 ----------------------------------------------------------------------

 ----------------
 SM40.n.5.pdb.xyz
 ----------------
 Symbolic Z-matrix:
 Charge =  0 Multiplicity = 1

 SCF Done:  E(RB3LYP) =  -1714.06457896     A.U. after   13 cycles
 SCF Done:  E(RB3LYP) =  -1714.06424581     A.U. after   11 cycles
 SCF Done:  E(RB3LYP) =  -1714.06478786     A.U. after   10 cycles
 SCF Done:  E(RB3LYP) =  -1714.06470225     A.U. after   10 cycles
 SCF Done:  E(RB3LYP) =  -1714.06476623     A.U. after    9 cycles
 SCF Done:  E(RB3LYP) =  -1714.06477261     A.U. after   10 cycles
 SCF Done:  E(RB3LYP) =  -1714.06479047     A.U. after    9 cycles
 SCF Done:  E(RB3LYP) =  -1714.06476992     A.U. after   10 cycles
 SCF Done:  E(RB3LYP) =  -1714.06480600     A.U. after    9 cycles
 SCF Done:  E(RB3LYP) =  -1714.06479135     A.U. after    7 cycles
 SCF Done:  E(RB3LYP) =  -1714.06478699     A.U. after    7 cycles
 SCF Done:  E(RB3LYP) =  -1714.06478767     A.U. after    7 cycles
 SCF Done:  E(RB3LYP) =  -1714.06478794     A.U. after    7 cycles
 SCF Done:  E(RB3LYP) =  -1714.06478742     A.U. after    6 cycles
 Optimization completed.
    -- Stationary point found.
 Normal termination of Gaussian 16 at Tue Sep 22 06:44:55 2020.

 --------------------------------------------------------------------
 #P Geom=AllCheck Guess=TCheck SCRF=Check GenChk RB3LYP/6-31G(d) Freq
 --------------------------------------------------------------------

 Structure from the checkpoint file:  "SM40.n.5.pdb.xyz.mst.n.w.chk"
 ----------------
 SM40.n.5.pdb.xyz
 ----------------
 Charge =  0 Multiplicity = 1

 SCF Done:  E(RB3LYP) =  -1714.06478742     A.U. after    1 cycles

  Exact polarizability: 255.728  18.503 267.582 -34.920  15.532 225.231
 Approx polarizability: 288.361  19.365 293.541 -40.012  16.913 259.204

                      1                      2                      3
                      A                      A                      A
 Frequencies --     20.4885                25.1376                32.2098
 Red. masses --      5.2842                 5.3576                 4.3078
 Frc consts  --      0.0013                 0.0020                 0.0026
 IR Inten    --      0.1623                 3.8271                 0.0873

                      4                      5                      6
                      A                      A                      A
 Frequencies --     43.8165                57.1971                70.1981
 Red. masses --      6.9601                 5.3266                 3.0805
 Frc consts  --      0.0079                 0.0103                 0.0089
 IR Inten    --      3.7049                 0.8207                 2.2780

                      7                      8                      9
                      A                      A                      A
 Frequencies --     87.8456               124.8020               149.8216
 Red. masses --      3.2943                 4.7223                 7.4304
 Frc consts  --      0.0150                 0.0433                 0.0983
 IR Inten    --      1.5314                 1.7822                 0.6386

                     10                     11                     12
                      A                      A                      A
 Frequencies --    154.1214               193.6902               202.8118
 Red. masses --      5.1448                 1.3790                 3.6317
 Frc consts  --      0.0720                 0.0305                 0.0880
 IR Inten    --      7.8536                 1.5120                 8.1910

                     13                     14                     15
                      A                      A                      A
 Frequencies --    214.5267               222.6640               233.1518
 Red. masses --      1.2351                 3.7597                 4.6718
 Frc consts  --      0.0335                 0.1098                 0.1496
 IR Inten    --      1.1076                 2.5321                 3.1767

                     16                     17                     18
                      A                      A                      A
 Frequencies --    246.9268               288.8135               301.9364
 Red. masses --      3.8475                 3.8866                 3.0738
 Frc consts  --      0.1382                 0.1910                 0.1651
 IR Inten    --     12.6637                12.2118                 1.7101

                     19                     20                     21
                      A                      A                      A
 Frequencies --    320.3316               345.0416               354.0249
 Red. masses --      2.9972                 2.7247                 2.7687
 Frc consts  --      0.1812                 0.1911                 0.2045
 IR Inten    --     10.3572                 5.7935                14.3396

                     22                     23                     24
                      A                      A                      A
 Frequencies --    365.1794               372.4899               399.1874
 Red. masses --      2.7837                 2.9272                 5.9827
 Frc consts  --      0.2187                 0.2393                 0.5617
 IR Inten    --      7.9521                 5.6659                19.5720

                     25                     26                     27
                      A                      A                      A
 Frequencies --    417.9678               437.7538               449.9960
 Red. masses --      2.9841                 3.9512                 3.9266
 Frc consts  --      0.3072                 0.4461                 0.4685
 IR Inten    --      0.4970                25.1160                 9.6168

                     28                     29                     30
                      A                      A                      A
 Frequencies --    461.2218               495.7915               501.6318
 Red. masses --      4.7117                 4.3071                 3.1892
 Frc consts  --      0.5905                 0.6238                 0.4728
 IR Inten    --     49.7264                14.1338                12.5519

                     31                     32                     33
                      A                      A                      A
 Frequencies --    520.3178               530.2342               562.5017
 Red. masses --      1.5112                 3.6333                 7.3402
 Frc consts  --      0.2411                 0.6018                 1.3684
 IR Inten    --    215.4732                33.2317                33.8964

                     34                     35                     36
                      A                      A                      A
 Frequencies --    573.9933               608.6120               634.6318
 Red. masses --      3.5392                 3.8464                 6.3682
 Frc consts  --      0.6870                 0.8394                 1.5112
 IR Inten    --     40.0025                77.1176                 0.5412

                     37                     38                     39
                      A                      A                      A
 Frequencies --    668.7747               685.8943               715.9093
 Red. masses --      6.3555                 3.4075                 2.0225
 Frc consts  --      1.6748                 0.9445                 0.6107
 IR Inten    --    264.9676                16.5032                37.4553

                     40                     41                     42
                      A                      A                      A
 Frequencies --    758.2333               762.5775               780.1701
 Red. masses --      2.8889                 2.2790                 2.9970
 Frc consts  --      0.9786                 0.7808                 1.0748
 IR Inten    --     97.1833                38.2805                14.0580

                     43                     44                     45
                      A                      A                      A
 Frequencies --    811.6954               823.5409               860.6091
 Red. masses --      2.2332                 2.9327                 3.6424
 Frc consts  --      0.8669                 1.1719                 1.5895
 IR Inten    --     14.8576                10.2575                35.3988

                     46                     47                     48
                      A                      A                      A
 Frequencies --    865.2647               900.8255               925.0153
 Red. masses --      1.2530                 1.6863                 1.9885
 Frc consts  --      0.5527                 0.8062                 1.0025
 IR Inten    --      0.4067                13.5326                14.8827

                     49                     50                     51
                      A                      A                      A
 Frequencies --    931.5941               936.3764               954.8668
 Red. masses --      3.1942                 1.8804                 2.2519
 Frc consts  --      1.6333                 0.9714                 1.2097
 IR Inten    --    150.5891                77.6841                48.5374

                     52                     53                     54
                      A                      A                      A
 Frequencies --    977.8538              1005.0164              1012.6271
 Red. masses --      1.3566                 1.2592                 2.3064
 Frc consts  --      0.7643                 0.7494                 1.3934
 IR Inten    --      0.3889                 0.7378                47.9740

                     55                     56                     57
                      A                      A                      A
 Frequencies --   1016.6158              1034.0002              1058.0771
 Red. masses --      5.8637                 1.9366                 2.1052
 Frc consts  --      3.5705                 1.2199                 1.3886
 IR Inten    --      1.3617                23.4861                 6.5315

                     58                     59                     60
                      A                      A                      A
 Frequencies --   1063.9227              1065.5380              1082.5891
 Red. masses --      1.4815                 1.5777                 1.8008
 Frc consts  --      0.9880                 1.0554                 1.2435
 IR Inten    --     27.5589                 8.1719                71.1343

                     61                     62                     63
                      A                      A                      A
 Frequencies --   1087.1188              1108.1800              1119.8978
 Red. masses --      3.5768                 7.5064                 1.7161
 Frc consts  --      2.4906                 5.4313                 1.2681
 IR Inten    --    114.9414               420.7915                10.2226

                     64                     65                     66
                      A                      A                      A
 Frequencies --   1131.0757              1152.7636              1179.0055
 Red. masses --      1.2332                 4.1635                 1.3882
 Frc consts  --      0.9295                 3.2598                 1.1369
 IR Inten    --      5.8601                63.7447                 8.8064

                     67                     68                     69
                      A                      A                      A
 Frequencies --   1190.6547              1195.9261              1207.4374
 Red. masses --      1.1048                 1.2982                 1.1455
 Frc consts  --      0.9228                 1.0939                 0.9840
 IR Inten    --      0.2015                 1.2585                 2.2378

                     70                     71                     72
                      A                      A                      A
 Frequencies --   1212.9768              1221.1873              1231.2681
 Red. masses --      3.2640                 1.6472                 1.8242
 Frc consts  --      2.8295                 1.4473                 1.6294
 IR Inten    --     64.3910                98.0339                46.9392

                     73                     74                     75
                      A                      A                      A
 Frequencies --   1235.5737              1267.7007              1272.1635
 Red. masses --      2.1995                 3.3308                 2.1019
 Frc consts  --      1.9784                 3.1538                 2.0042
 IR Inten    --    104.9242               150.5712                61.4771

                     76                     77                     78
                      A                      A                      A
 Frequencies --   1279.1950              1285.4854              1303.6019
 Red. masses --      2.6215                 2.3747                 1.8153
 Frc consts  --      2.5274                 2.3121                 1.8175
 IR Inten    --    223.4663               130.3863               142.5699

                     79                     80                     81
                      A                      A                      A
 Frequencies --   1350.5854              1365.6083              1392.0573
 Red. masses --      2.7381                 1.7017                 1.4223
 Frc consts  --      2.9427                 1.8697                 1.6239
 IR Inten    --      3.7274                 0.3953                27.4473

                     82                     83                     84
                      A                      A                      A
 Frequencies --   1398.3015              1452.9315              1457.3345
 Red. masses --      1.4282                 1.1400                 1.1202
 Frc consts  --      1.6453                 1.4178                 1.4017
 IR Inten    --      5.6683                29.3978                10.9655

                     85                     86                     87
                      A                      A                      A
 Frequencies --   1460.3280              1477.7971              1486.6521
 Red. masses --      1.1131                 1.1496                 1.1886
 Frc consts  --      1.3985                 1.4792                 1.5477
 IR Inten    --     23.7229                 1.1696                49.3653

                     88                     89                     90
                      A                      A                      A
 Frequencies --   1500.9074              1504.1469              1511.2403
 Red. masses --      2.0686                 1.0517                 1.0840
 Frc consts  --      2.7456                 1.4020                 1.4587
 IR Inten    --      9.9302                12.2009                13.2699

                     91                     92                     93
                      A                      A                      A
 Frequencies --   1517.2840              1518.2396              1521.0687
 Red. masses --      1.0926                 1.0595                 1.0577
 Frc consts  --      1.4820                 1.4388                 1.4419
 IR Inten    --     13.1200                18.6405                 8.9215

                     94                     95                     96
                      A                      A                      A
 Frequencies --   1532.0333              1543.1540              1642.0021
 Red. masses --      1.0473                 2.2132                 5.4233
 Frc consts  --      1.4483                 3.1052                 8.6151
 IR Inten    --     20.6598                15.1384                 1.5664

                     97                     98                     99
                      A                      A                      A
 Frequencies --   1662.4805              3052.9221              3058.1609
 Red. masses --      5.6496                 1.0470                 1.0645
 Frc consts  --      9.1999                 5.7497                 5.8654
 IR Inten    --      7.9928                79.0659                21.8619

                    100                    101                    102
                      A                      A                      A
 Frequencies --   3064.8249              3071.0346              3098.9559
 Red. masses --      1.0437                 1.0635                 1.1002
 Frc consts  --      5.7762                 5.9097                 6.2252
 IR Inten    --     46.0269                85.1634                41.9480

                    103                    104                    105
                      A                      A                      A
 Frequencies --   3129.5149              3142.3142              3146.7289
 Red. masses --      1.0981                 1.0924                 1.0572
 Frc consts  --      6.3365                 6.3555                 6.1679
 IR Inten    --     22.5124                30.4880                 1.9395

                    106                    107                    108
                      A                      A                      A
 Frequencies --   3150.9724              3157.4968              3185.5148
 Red. masses --      1.0941                 1.0578                 1.1045
 Frc consts  --      6.4003                 6.2135                 6.6037
 IR Inten    --     20.7959                27.0212                21.6803

                    109                    110                    111
                      A                      A                      A
 Frequencies --   3192.2691              3195.9036              3207.7874
 Red. masses --      1.0876                 1.0867                 1.0896
 Frc consts  --      6.5302                 6.5397                 6.6057
 IR Inten    --     19.2281                 9.9377                12.7238

                    112                    113                    114
                      A                      A                      A
 Frequencies --   3209.6833              3215.2615              3218.7861
 Red. masses --      1.1008                 1.0935                 1.1114
 Frc consts  --      6.6816                 6.6605                 6.7841
 IR Inten    --      7.3575                65.1619                 1.0084

                    115                    116                    117
                      A                      A                      A
 Frequencies --   3227.8279              3236.7754              3510.7228
 Red. masses --      1.0975                 1.1103                 1.0767
 Frc consts  --      6.7373                 6.8538                 7.8187
 IR Inten    --     34.6198                42.2116               147.5742

 - Thermochemistry -
 -------------------
 Temperature   298.150 Kelvin.  Pressure   1.00000 Atm.
 Atom     1 has atomic number  8 and mass  15.99491

 Molecular mass:   332.08645 amu.
 Principal axes and moments of inertia in atomic units:
                           1         2         3
     Eigenvalues --  5471.327388359.43359**********
           X            0.99993  -0.00759  -0.00885
           Y            0.00792   0.99925   0.03792
           Z            0.00856  -0.03799   0.99924
 This molecule is an asymmetric top.
 Rotational symmetry number  1.
 Warning -- assumption of classical behavior for rotation
           may cause significant error
 Rotational temperatures (Kelvin)      0.01583     0.01036     0.00750
 Rotational constants (GHZ):           0.32985     0.21589     0.15626
 Zero-point vibrational energy     874275.7 (Joules/Mol)
                                  208.95690 (Kcal/Mol)
 Warning -- explicit consideration of  35 degrees of freedom as
           vibrations may cause significant error
 Vibrational temperatures:     29.48    36.17    46.34    63.04    82.29
          (Kelvin)            101.00   126.39   179.56   215.56   221.75
                              278.68   291.80   308.66   320.36   335.45
                              355.27   415.54   434.42   460.89   496.44
                              509.36   525.41   535.93   574.34   601.36
                              629.83   647.44   663.60   713.33   721.74
                              748.62   762.89   809.31   825.85   875.66
                              913.09   962.22   986.85  1030.03  1090.93
                             1097.18  1122.49  1167.85  1184.89  1238.22
                             1244.92  1296.09  1330.89  1340.36  1347.24
                             1373.84  1406.91  1445.99  1456.94  1462.68
                             1487.70  1522.34  1530.75  1533.07  1557.60
                             1564.12  1594.42  1611.28  1627.37  1658.57
                             1696.33  1713.09  1720.67  1737.23  1745.20
                             1757.02  1771.52  1777.71  1823.94  1830.36
                             1840.48  1849.53  1875.59  1943.19  1964.81
                             2002.86  2011.84  2090.44  2096.78  2101.09
                             2126.22  2138.96  2159.47  2164.13  2174.34
                             2183.03  2184.41  2188.48  2204.25  2220.25
                             2362.47  2391.94  4392.47  4400.01  4409.60
                             4418.53  4458.71  4502.67  4521.09  4527.44
                             4533.55  4542.93  4583.25  4592.96  4598.19
                             4615.29  4618.02  4626.04  4631.12  4644.12
                             4657.00  5051.15

 Zero-point correction=                           0.332994 (Hartree/Particle)
 Thermal correction to Energy=                    0.354259
 Thermal correction to Enthalpy=                  0.355203
 Thermal correction to Gibbs Free Energy=         0.281042
 Sum of electronic and zero-point Energies=          -1713.731793
 Sum of electronic and thermal Energies=             -1713.710529
 Sum of electronic and thermal Enthalpies=           -1713.709584
 Sum of electronic and thermal Free Energies=        -1713.783745

                     E (Thermal)             CV                S
                      KCal/Mol        Cal/Mol-Kelvin    Cal/Mol-Kelvin
 Total                  222.301             81.299            156.085
 Electronic               0.000              0.000              0.000
 Translational            0.889              2.981             43.296
 Rotational               0.889              2.981             34.623
 Vibrational            220.523             75.337             78.166
 Vibration     1          0.593              1.986              6.586
 Vibration     2          0.593              1.985              6.180
 Vibration     3          0.594              1.983              5.688
 Vibration     4          0.595              1.980              5.079
 Vibration     5          0.596              1.975              4.552
 Vibration     6          0.598              1.968              4.148
 Vibration     7          0.601              1.958              3.707
 Vibration     8          0.610              1.928              3.025
 Vibration     9          0.618              1.903              2.674
 Vibration    10          0.620              1.898              2.621
 Vibration    11          0.635              1.849              2.192
 Vibration    12          0.639              1.836              2.107
 Vibration    13          0.644              1.819              2.005
 Vibration    14          0.648              1.807              1.937
 Vibration    15          0.654              1.790              1.855
 Vibration    16          0.661              1.768              1.752
 Vibration    17          0.685              1.695              1.481
 Vibration    18          0.694              1.670              1.406
 Vibration    19          0.706              1.635              1.308
 Vibration    20          0.723              1.585              1.189
 Vibration    21          0.730              1.567              1.148
 Vibration    22          0.738              1.544              1.100
 Vibration    23          0.744              1.529              1.070
 Vibration    24          0.765              1.472              0.966
 Vibration    25          0.781              1.431              0.899
 Vibration    26          0.798              1.388              0.834
 Vibration    27          0.809              1.361              0.796
 Vibration    28          0.819              1.336              0.763
 Vibration    29          0.851              1.259              0.669
 Vibration    30          0.857              1.246              0.654
 Vibration    31          0.875              1.205              0.609
 Vibration    32          0.885              1.183              0.587
 Vibration    33          0.918              1.112              0.519
 Vibration    34          0.930              1.088              0.497
 Vibration    35          0.967              1.014              0.435

 Optimization completed.
    -- Stationary point found.
 Normal termination of Gaussian 16 at Tue Sep 22 07:06:54 2020.

 ----------------------------------------------------------------------
 #p b3lyp/6-31G(d) scrf=(iefpcm,read,solvent=water) geom=allcheck guess
 =read
 ----------------------------------------------------------------------

 Structure from the checkpoint file:  "SM40.n.5.pdb.xyz.mst.n.w.chk"
 ----------------
 SM40.n.5.pdb.xyz
 ----------------
 Charge =  0 Multiplicity = 1

 SCF Done:  E(RB3LYP) =  -1714.06482526     A.U. after    6 cycles
 Normal termination of Gaussian 16 at Tue Sep 22 07:07:53 2020.

 -----------------------------
 #p B3LYP/6-31G* geom=allcheck
 -----------------------------

 Structure from the checkpoint file:  "SM40.n.5.pdb.xyz.mst.n.w.chk"
 ----------------
 SM40.n.5.pdb.xyz
 ----------------
 Charge =  0 Multiplicity = 1

 SCF Done:  E(RB3LYP) =  -1714.03000324     A.U. after   15 cycles
 Normal termination of Gaussian 16 at Tue Sep 22 07:09:09 2020.
 Gaussian 16:  ES64L-G16RevB.01 20-Dec-2017

 ----------------------------------------------------------------------
 #p mp2/aug-cc-pVDZ scf=(MaxCycle=2000,NoVarAcc,NoIncFock) maxdisk=120G
 B geom=allcheck
 ----------------------------------------------------------------------

 Structure from the checkpoint file:  "SM40.n.5.pdb.xyz.mst.n.w.chk"
 ----------------
 SM40.n.5.pdb.xyz
 ----------------
 Charge =  0 Multiplicity = 1

                         Standard orientation:
 ---------------------------------------------------------------------
 Center     Atomic      Atomic             Coordinates (Angstroms)
 Number     Number       Type             X           Y           Z
 ---------------------------------------------------------------------
      1          8           0       -4.096879    0.145520   -0.114540
      2         16           0       -2.704269   -0.211162   -0.422325
      3          7           0       -1.805954    0.752974    0.592132
      4          6           0       -0.331579    0.742997    0.757805
      5          6           0        0.026273    2.140761    1.365763
      6         16           0        0.516277    2.738710   -0.286670
      7          6           0        0.373023    0.953863   -0.622723
      8          8           0       -0.549137    3.528344   -0.937575
      9          8           0        1.898799    3.254573   -0.349932
     10          6           0        0.146822   -0.452884    1.604971
     11          6           0        1.652112   -0.554047    1.926424
     12          6           0        2.546782   -1.047631    0.807070
     13          6           0        3.606462   -0.261213    0.336553
     14          6           0        4.450732   -0.722558   -0.676433
     15          6           0        4.247376   -1.984876   -1.235221
     16          6           0        3.195551   -2.780594   -0.773065
     17          6           0        2.355846   -2.315652    0.238663
     18          7           0       -2.365794   -1.813731   -0.012899
     19          6           0       -2.974154   -2.246238    1.254728
     20          6           0       -2.565100   -2.779576   -1.109412
     21          8           0       -2.213802   -0.039905   -1.793960
     22          1           0       -2.313482    0.922699    1.462770
     23          1           0        0.897011    2.118584    2.019087
     24          1           0       -0.790826    2.696486    1.824177
     25          1           0        1.368655    0.516417   -0.656431
     26          1           0       -0.211276    0.704227   -1.504112
     27          1           0       -0.185099   -1.367718    1.107903
     28          1           0       -0.396725   -0.396880    2.554437
     29          1           0        1.737594   -1.248461    2.770197
     30          1           0        2.033059    0.404002    2.294289
     31          1           0        3.765733    0.723237    0.766901
     32          1           0        5.264760   -0.095691   -1.026070
     33          1           0        4.901300   -2.346873   -2.021762
     34          1           0        3.031697   -3.765090   -1.198245
     35          1           0        1.544669   -2.945236    0.594158
     36          1           0       -2.745417   -1.531967    2.045343
     37          1           0       -2.526039   -3.204687    1.519259
     38          1           0       -4.060850   -2.364486    1.176135
     39          1           0       -2.051148   -2.427348   -2.000422
     40          1           0       -3.625465   -2.946479   -1.334804
     41          1           0       -2.120779   -3.722578   -0.786222
 ---------------------------------------------------------------------

 SCF Done:  E(RHF) =  -1707.23914531     A.U. after   16 cycles
 E2 =    -0.3326358213D+01 EUMP2 =    -0.17105655035208D+04

 The electronic state is 1-A.
 Alpha  occ. eigenvalues --  -92.25567 -92.19438 -20.56945 -20.56885 -20.55548
 Alpha  occ. eigenvalues --  -20.55022 -15.63275 -15.62930 -11.34548 -11.29828
 Alpha  occ. eigenvalues --  -11.29819 -11.28863 -11.28151 -11.27084 -11.26746
 Alpha  occ. eigenvalues --  -11.26597 -11.25823 -11.25592 -11.25576 -11.25341
 Alpha  occ. eigenvalues --  -11.25263  -9.22013  -9.16685  -6.90574  -6.90518
 Alpha  occ. eigenvalues --   -6.90482  -6.85173  -6.85082  -6.85015  -1.48003
 Alpha  occ. eigenvalues --   -1.43446  -1.35027  -1.32134  -1.27659  -1.26231
 Alpha  occ. eigenvalues --   -1.17469  -1.14617  -1.08899  -1.03061  -1.02249
 Alpha  occ. eigenvalues --   -0.99744  -0.98433  -0.96700  -0.93066  -0.86390
 Alpha  occ. eigenvalues --   -0.84339  -0.82502  -0.80984  -0.78612  -0.75283
 Alpha  occ. eigenvalues --   -0.72253  -0.71369  -0.70753  -0.68817  -0.67546
 Alpha  occ. eigenvalues --   -0.67086  -0.65918  -0.65051  -0.64397  -0.63980
 Alpha  occ. eigenvalues --   -0.62618  -0.62152  -0.61129  -0.60416  -0.60043
 Alpha  occ. eigenvalues --   -0.58984  -0.58638  -0.58555  -0.57975  -0.56609
 Alpha  occ. eigenvalues --   -0.55602  -0.53788  -0.52594  -0.51611  -0.50721
 Alpha  occ. eigenvalues --   -0.50164  -0.50041  -0.49923  -0.48610  -0.48182
 Alpha  occ. eigenvalues --   -0.47978  -0.47735  -0.45712  -0.44061  -0.42361
 Alpha  occ. eigenvalues --   -0.41725  -0.35113  -0.34219
 Alpha virt. eigenvalues --    0.01558   0.02533   0.03308   0.03618   0.04206
 Alpha virt. eigenvalues --    0.04420   0.05106   0.05608   0.05831   0.06062
 Alpha virt. eigenvalues --    0.06568   0.07328   0.07550   0.07757   0.08182

 Mulliken charges:
               1
     1  O   -1.143720
     2  S    3.159233
     3  N   -1.122780
     4  C   -0.276329
     5  C    0.449433
     6  S    2.881420
     7  C    0.337074
     8  O   -1.265685
     9  O   -1.258290
    10  C    1.172530
    11  C    0.135754
    12  C    0.833294
    13  C    0.747339
    14  C    0.071202
    15  C    0.790822
    16  C    0.055591
    17  C    0.669551
    18  N   -1.117391
    19  C    0.845224
    20  C    0.886658
    21  O   -1.172043
    22  H   -0.106059
    23  H   -0.252811
    24  H   -0.292879
    25  H   -0.249821
    26  H   -0.353512
    27  H   -0.192397
    28  H   -0.066448
    29  H   -0.127865
    30  H   -0.247896
    31  H   -0.742334
    32  H   -0.472798
    33  H   -0.452556
    34  H   -0.523174
    35  H   -0.701476
    36  H   -0.195227
    37  H   -0.160039
    38  H   -0.103729
    39  H   -0.139418
    40  H   -0.109778
    41  H   -0.188668
 Sum of Mulliken charges =  -0.00000

 Dipole moment (field-independent basis, Debye):
    X=              1.4678    Y=             -8.4160    Z=              6.2304  Tot=             10.5736
 Quadrupole moment (field-independent basis, Debye-Ang):
   XX=           -155.3393   YY=           -152.6687   ZZ=           -135.7503
   XY=              6.7681   XZ=            -12.1837   YZ=             14.4748

 Normal termination of Gaussian 16 at Tue Sep 22 08:49:20 2020.
