 Gaussian 16, Revision B.01,

 ----------------------------------------------------------------------
 #p b3lyp/6-31G(d) opt freq NoSymm scf=(MaxCycle=2000,NoVarAcc,NoIncFoc
 k) scrf=(iefpcm,read,solvent=water)
 ----------------------------------------------------------------------

 ----------------
 SM40.a.8.pdb.xyz
 ----------------
 Symbolic Z-matrix:
 Charge = -1 Multiplicity = 1

 SCF Done:  E(RB3LYP) =  -1713.58748662     A.U. after   13 cycles
 SCF Done:  E(RB3LYP) =  -1713.58517916     A.U. after   11 cycles
 SCF Done:  E(RB3LYP) =  -1713.58588106     A.U. after   11 cycles
 SCF Done:  E(RB3LYP) =  -1713.58748450     A.U. after    7 cycles
 SCF Done:  E(RB3LYP) =  -1713.58748780     A.U. after    4 cycles
 SCF Done:  E(RB3LYP) =  -1713.58606766     A.U. after   11 cycles
 SCF Done:  E(RB3LYP) =  -1713.58690506     A.U. after   11 cycles
 SCF Done:  E(RB3LYP) =  -1713.58702966     A.U. after   11 cycles
 SCF Done:  E(RB3LYP) =  -1713.58704570     A.U. after    9 cycles
 SCF Done:  E(RB3LYP) =  -1713.58700685     A.U. after    8 cycles
 SCF Done:  E(RB3LYP) =  -1713.58701960     A.U. after    8 cycles
 SCF Done:  E(RB3LYP) =  -1713.58702562     A.U. after    7 cycles
 Optimization completed.
    -- Stationary point found.
 Normal termination of Gaussian 16 at Thu Sep 24 01:43:41 2020.

 --------------------------------------------------------------------
 #P Geom=AllCheck Guess=TCheck SCRF=Check GenChk RB3LYP/6-31G(d) Freq
 --------------------------------------------------------------------

 Structure from the checkpoint file:  "SM40.a.8.pdb.xyz.mst.a.w.chk"
 ----------------
 SM40.a.8.pdb.xyz
 ----------------
 Charge = -1 Multiplicity = 1

 SCF Done:  E(RB3LYP) =  -1713.58702562     A.U. after    1 cycles

  Exact polarizability: 277.483 -36.724 249.143  15.387  22.857 242.738
 Approx polarizability: 306.485 -37.410 276.660  20.168  21.621 278.941

                      1                      2                      3
                      A                      A                      A
 Frequencies --     21.8725                31.0743                42.3849
 Red. masses --      4.5473                 5.3094                 7.7199
 Frc consts  --      0.0013                 0.0030                 0.0082
 IR Inten    --      1.9265                 2.7121                 2.8859

                      4                      5                      6
                      A                      A                      A
 Frequencies --     48.9994                56.5674                74.2145
 Red. masses --      5.5909                 3.8335                 2.8996
 Frc consts  --      0.0079                 0.0072                 0.0094
 IR Inten    --      3.0119                 0.3151                 5.8733

                      7                      8                      9
                      A                      A                      A
 Frequencies --     91.1293               115.1818               154.0787
 Red. masses --      4.3191                 6.3796                 7.4510
 Frc consts  --      0.0211                 0.0499                 0.1042
 IR Inten    --      2.6270                 0.6954                 0.5681

                     10                     11                     12
                      A                      A                      A
 Frequencies --    183.7613               192.2219               206.5487
 Red. masses --      4.9733                 4.0798                 1.5481
 Frc consts  --      0.0989                 0.0888                 0.0389
 IR Inten    --      5.0094                18.1969                 4.2590

                     13                     14                     15
                      A                      A                      A
 Frequencies --    225.2739               230.0552               248.4503
 Red. masses --      1.1346                 2.4948                 3.6683
 Frc consts  --      0.0339                 0.0778                 0.1334
 IR Inten    --      3.1336                13.3030                 6.0428

                     16                     17                     18
                      A                      A                      A
 Frequencies --    270.2716               276.4140               300.7031
 Red. masses --      4.8991                 4.3755                 2.5630
 Frc consts  --      0.2108                 0.1970                 0.1365
 IR Inten    --      2.1254                 5.0942                 2.9142

                     19                     20                     21
                      A                      A                      A
 Frequencies --    321.5906               348.1575               356.9301
 Red. masses --      3.1219                 3.1451                 2.4745
 Frc consts  --      0.1902                 0.2246                 0.1857
 IR Inten    --      6.9649                 4.6851                 4.7713

                     22                     23                     24
                      A                      A                      A
 Frequencies --    370.5349               398.3255               401.0142
 Red. masses --      3.3004                 5.7335                 3.2179
 Frc consts  --      0.2670                 0.5360                 0.3049
 IR Inten    --     12.3850                23.9288                25.8172

                     25                     26                     27
                      A                      A                      A
 Frequencies --    421.8221               441.7629               454.6285
 Red. masses --      2.9935                 2.9677                 4.2544
 Frc consts  --      0.3138                 0.3412                 0.5181
 IR Inten    --      0.1199                18.9351                13.6423

                     28                     29                     30
                      A                      A                      A
 Frequencies --    475.1858               489.2377               503.6586
 Red. masses --      5.5980                 3.5585                 4.9789
 Frc consts  --      0.7447                 0.5018                 0.7441
 IR Inten    --     14.6032                26.8503                19.4793

                     31                     32                     33
                      A                      A                      A
 Frequencies --    525.3554               568.5859               582.3215
 Red. masses --      4.3186                 3.1489                 6.5064
 Frc consts  --      0.7023                 0.5998                 1.2999
 IR Inten    --      3.1488                 6.5672                41.3849

                     34                     35                     36
                      A                      A                      A
 Frequencies --    598.0813               634.0690               636.4585
 Red. masses --      7.7563                 6.4141                 7.4308
 Frc consts  --      1.6346                 1.5194                 1.7735
 IR Inten    --    102.0457                16.4225               275.1511

                     37                     38                     39
                      A                      A                      A
 Frequencies --    693.3452               716.5222               743.9839
 Red. masses --      4.5734                 2.4299                 3.2227
 Frc consts  --      1.2954                 0.7350                 1.0510
 IR Inten    --     38.1543                12.2426                70.9118

                     40                     41                     42
                      A                      A                      A
 Frequencies --    748.7169               773.2562               801.8400
 Red. masses --      2.3678                 2.2543                 3.5242
 Frc consts  --      0.7821                 0.7942                 1.3350
 IR Inten    --     46.7486                42.2834                13.0138

                     43                     44                     45
                      A                      A                      A
 Frequencies --    822.2879               843.5236               867.2649
 Red. masses --      1.6811                 3.0318                 1.2506
 Frc consts  --      0.6697                 1.2710                 0.5542
 IR Inten    --     17.8435                74.8438                 0.1205

                     46                     47                     48
                      A                      A                      A
 Frequencies --    870.4793               916.8343               931.2174
 Red. masses --      2.6599                 1.5837                 3.2079
 Frc consts  --      1.1875                 0.7843                 1.6390
 IR Inten    --     26.0163                37.7845               161.3506

                     49                     50                     51
                      A                      A                      A
 Frequencies --    943.0723               979.5384               991.9411
 Red. masses --      1.9941                 1.3552                 2.4378
 Frc consts  --      1.0449                 0.7661                 1.4133
 IR Inten    --      1.6630                 0.0930                44.9254

                     52                     53                     54
                      A                      A                      A
 Frequencies --   1001.6593              1005.6751              1015.9697
 Red. masses --      1.9416                 1.8393                 5.8378
 Frc consts  --      1.1478                 1.0960                 3.5503
 IR Inten    --     20.9994                17.5285                 1.3640

                     55                     56                     57
                      A                      A                      A
 Frequencies --   1035.6155              1043.5992              1057.1381
 Red. masses --      1.3701                 1.7861                 2.5238
 Frc consts  --      0.8658                 1.1461                 1.6617
 IR Inten    --     42.3245                76.0022               103.9135

                     58                     59                     60
                      A                      A                      A
 Frequencies --   1062.1065              1064.0303              1075.6259
 Red. masses --      1.5434                 2.9094                 2.2694
 Frc consts  --      1.0258                 1.9407                 1.5470
 IR Inten    --     12.5489               104.9310               116.2799

                     61                     62                     63
                      A                      A                      A
 Frequencies --   1087.8806              1120.7554              1126.0260
 Red. masses --      5.6855                 1.7855                 1.2325
 Frc consts  --      3.9644                 1.3214                 0.9207
 IR Inten    --    476.8484                27.4556                 3.7776

                     64                     65                     66
                      A                      A                      A
 Frequencies --   1149.2581              1179.9326              1183.9984
 Red. masses --      4.7797                 1.4675                 3.4996
 Frc consts  --      3.7195                 1.2037                 2.8905
 IR Inten    --    171.1189                32.9425               345.2319

                     67                     68                     69
                      A                      A                      A
 Frequencies --   1188.9714              1189.8905              1208.9676
 Red. masses --      1.0942                 1.6903                 1.1947
 Frc consts  --      0.9114                 1.4100                 1.0289
 IR Inten    --      0.3132               130.8938                 7.9381

                     70                     71                     72
                      A                      A                      A
 Frequencies --   1213.7137              1219.2820              1230.3352
 Red. masses --      3.3060                 1.4301                 2.3306
 Frc consts  --      2.8694                 1.2527                 2.0786
 IR Inten    --    140.0850                24.5095                20.5499

                     73                     74                     75
                      A                      A                      A
 Frequencies --   1239.8500              1253.8224              1263.1958
 Red. masses --      3.4440                 1.7766                 1.9332
 Frc consts  --      3.1193                 1.6455                 1.8174
 IR Inten    --    391.6700               113.2563                13.2171

                     76                     77                     78
                      A                      A                      A
 Frequencies --   1266.8777              1320.2696              1346.4089
 Red. masses --      2.0743                 1.4596                 2.1417
 Frc consts  --      1.9615                 1.4990                 2.2875
 IR Inten    --      9.9929                89.2750                 2.2204

                     79                     80                     81
                      A                      A                      A
 Frequencies --   1364.5492              1399.9886              1408.8781
 Red. masses --      2.1108                 1.3894                 1.4209
 Frc consts  --      2.3157                 1.6044                 1.6618
 IR Inten    --      0.3848                 4.8926                 2.1470

                     82                     83                     84
                      A                      A                      A
 Frequencies --   1438.0024              1442.5005              1462.7107
 Red. masses --      1.1055                 1.1482                 1.1676
 Frc consts  --      1.3469                 1.4077                 1.4719
 IR Inten    --     31.0767                 1.0351                 4.2515

                     85                     86                     87
                      A                      A                      A
 Frequencies --   1474.3691              1495.1628              1500.0173
 Red. masses --      1.0975                 1.4773                 1.0497
 Frc consts  --      1.4056                 1.9458                 1.3916
 IR Inten    --      8.6908                 2.0375                11.9219

                     88                     89                     90
                      A                      A                      A
 Frequencies --   1504.3345              1507.5742              1511.4727
 Red. masses --      1.4223                 1.0899                 1.0559
 Frc consts  --      1.8964                 1.4595                 1.4212
 IR Inten    --     11.9876                 5.5629                19.8996

                     91                     92                     93
                      A                      A                      A
 Frequencies --   1515.1880              1529.2714              1544.5231
 Red. masses --      1.0467                 1.0465                 2.2256
 Frc consts  --      1.4157                 1.4420                 3.1282
 IR Inten    --      4.6452                11.1896                21.8328

                     94                     95                     96
                      A                      A                      A
 Frequencies --   1641.7669              1662.3288              3017.0502
 Red. masses --      5.4239                 5.6513                 1.0524
 Frc consts  --      8.6136                 9.2009                 5.6439
 IR Inten    --      2.0273                16.7945                99.9666

                     97                     98                     99
                      A                      A                      A
 Frequencies --   3024.1667              3039.4200              3069.3701
 Red. masses --      1.0506                 1.0656                 1.0631
 Frc consts  --      5.6611                 5.8001                 5.9010
 IR Inten    --    134.7788                40.2381                30.5985

                    100                    101                    102
                      A                      A                      A
 Frequencies --   3083.5939              3111.2171              3112.0732
 Red. masses --      1.0950                 1.0885                 1.1007
 Frc consts  --      6.1343                 6.2081                 6.2809
 IR Inten    --     54.4572                55.3543                51.0832

                    103                    104                    105
                      A                      A                      A
 Frequencies --   3113.9157              3120.1795              3131.3749
 Red. masses --      1.0864                 1.0584                 1.0569
 Frc consts  --      6.2064                 6.0713                 6.1060
 IR Inten    --     41.6799                39.1532                24.0423

                    106                    107                    108
                      A                      A                      A
 Frequencies --   3179.1485              3189.5895              3190.6906
 Red. masses --      1.0985                 1.0867                 1.0988
 Frc consts  --      6.5417                 6.5138                 6.5907
 IR Inten    --     10.8492                19.4871                13.8957

                    109                    110                    111
                      A                      A                      A
 Frequencies --   3193.8153              3198.8208              3204.3958
 Red. masses --      1.0862                 1.1098                 1.0897
 Frc consts  --      6.5281                 6.6909                 6.5926
 IR Inten    --      6.6048                17.6121                14.6662

                    112                    113                    114
                      A                      A                      A
 Frequencies --   3210.3016              3215.0865              3223.3798
 Red. masses --      1.0940                 1.1115                 1.0976
 Frc consts  --      6.6432                 6.7693                 6.7192
 IR Inten    --     82.3348                 9.7758                34.7602

 - Thermochemistry -
 -------------------
 Temperature   298.150 Kelvin.  Pressure   1.00000 Atm.
 Atom     1 has atomic number  8 and mass  15.99491

 Molecular mass:   331.07863 amu.
 Principal axes and moments of inertia in atomic units:
                           1         2         3
     Eigenvalues --  4917.917118853.77613**********
           X            0.99989   0.01259   0.00799
           Y           -0.01274   0.99974   0.01892
           Z           -0.00775  -0.01902   0.99979
 This molecule is an asymmetric top.
 Rotational symmetry number  1.
 Warning -- assumption of classical behavior for rotation
           may cause significant error
 Rotational temperatures (Kelvin)      0.01761     0.00978     0.00741
 Rotational constants (GHZ):           0.36697     0.20384     0.15444
 Zero-point vibrational energy     838114.7 (Joules/Mol)
                                  200.31421 (Kcal/Mol)
 Warning -- explicit consideration of  34 degrees of freedom as
           vibrations may cause significant error
 Vibrational temperatures:     31.47    44.71    60.98    70.50    81.39
          (Kelvin)            106.78   131.11   165.72   221.68   264.39
                              276.56   297.18   324.12   331.00   357.46
                              388.86   397.70   432.64   462.70   500.92
                              513.54   533.12   573.10   576.97   606.91
                              635.60   654.11   683.69   703.90   724.65
                              755.87   818.07   837.83   860.51   912.28
                              915.72   997.57  1030.92  1070.43  1077.24
                             1112.54  1153.67  1183.09  1213.64  1247.80
                             1252.43  1319.12  1339.81  1356.87  1409.34
                             1427.18  1441.16  1446.94  1461.75  1490.02
                             1501.51  1520.99  1528.13  1530.90  1547.59
                             1565.22  1612.52  1620.10  1653.53  1697.66
                             1703.51  1710.66  1711.99  1739.43  1746.26
                             1754.27  1770.18  1783.87  1803.97  1817.46
                             1822.75  1899.57  1937.18  1963.28  2014.27
                             2027.06  2068.96  2075.44  2104.51  2121.29
                             2151.21  2158.19  2164.40  2169.06  2174.67
                             2180.02  2200.28  2222.22  2362.14  2391.72
                             4340.86  4351.10  4373.05  4416.14  4436.60
                             4476.35  4477.58  4480.23  4489.24  4505.35
                             4574.09  4589.11  4590.69  4595.19  4602.39
                             4610.41  4618.91  4625.79  4637.72

 Zero-point correction=                           0.319221 (Hartree/Particle)
 Thermal correction to Energy=                    0.340093
 Thermal correction to Enthalpy=                  0.341037
 Thermal correction to Gibbs Free Energy=         0.268215
 Sum of electronic and zero-point Energies=          -1713.267805
 Sum of electronic and thermal Energies=             -1713.246933
 Sum of electronic and thermal Enthalpies=           -1713.245988
 Sum of electronic and thermal Free Energies=        -1713.318811

                     E (Thermal)             CV                S
                      KCal/Mol        Cal/Mol-Kelvin    Cal/Mol-Kelvin
 Total                  213.412             80.098            153.268
 Electronic               0.000              0.000              0.000
 Translational            0.889              2.981             43.287
 Rotational               0.889              2.981             34.586
 Vibrational            211.634             74.136             75.395
 Vibration     1          0.593              1.985              6.457
 Vibration     2          0.594              1.983              5.760
 Vibration     3          0.595              1.980              5.144
 Vibration     4          0.595              1.978              4.857
 Vibration     5          0.596              1.975              4.573
 Vibration     6          0.599              1.966              4.038
 Vibration     7          0.602              1.955              3.636
 Vibration     8          0.608              1.937              3.180
 Vibration     9          0.620              1.898              2.621
 Vibration    10          0.631              1.862              2.290
 Vibration    11          0.634              1.851              2.206
 Vibration    12          0.641              1.831              2.074
 Vibration    13          0.650              1.803              1.916
 Vibration    14          0.652              1.795              1.879
 Vibration    15          0.662              1.765              1.742
 Vibration    16          0.674              1.728              1.594
 Vibration    17          0.678              1.717              1.556
 Vibration    18          0.693              1.672              1.413
 Vibration    19          0.707              1.632              1.302
 Vibration    20          0.726              1.579              1.175
 Vibration    21          0.732              1.561              1.135
 Vibration    22          0.743              1.533              1.078
 Vibration    23          0.765              1.474              0.969
 Vibration    24          0.767              1.468              0.959
 Vibration    25          0.784              1.423              0.886
 Vibration    26          0.802              1.379              0.821
 Vibration    27          0.813              1.351              0.782
 Vibration    28          0.832              1.305              0.723
 Vibration    29          0.845              1.274              0.686
 Vibration    30          0.859              1.242              0.649
 Vibration    31          0.880              1.194              0.598
 Vibration    32          0.925              1.099              0.507
 Vibration    33          0.939              1.070              0.481
 Vibration    34          0.956              1.036              0.453

                           ! Non-Optimized Parameters !
 Normal termination of Gaussian 16 at Thu Sep 24 02:02:54 2020.

 ----------------------------------------------------------------------
 #p b3lyp/6-31G(d) scrf=(iefpcm,read,solvent=water) geom=allcheck guess
 =read
 ----------------------------------------------------------------------

 Structure from the checkpoint file:  "SM40.a.8.pdb.xyz.mst.a.w.chk"
 ----------------
 SM40.a.8.pdb.xyz
 ----------------
 Charge = -1 Multiplicity = 1

 SCF Done:  E(RB3LYP) =  -1713.58700707     A.U. after    6 cycles
 Normal termination of Gaussian 16 at Thu Sep 24 02:03:42 2020.

 -----------------------------
 #p B3LYP/6-31G* geom=allcheck
 -----------------------------

 Structure from the checkpoint file:  "SM40.a.8.pdb.xyz.mst.a.w.chk"
 ----------------
 SM40.a.8.pdb.xyz
 ----------------
 Charge = -1 Multiplicity = 1

 SCF Done:  E(RB3LYP) =  -1713.49042020     A.U. after   15 cycles
 Normal termination of Gaussian 16 at Thu Sep 24 02:04:48 2020.
 Gaussian 16:  ES64L-G16RevB.01 20-Dec-2017

 ----------------------------------------------------------------------
 #p mp2/aug-cc-pVDZ scf=(MaxCycle=2000,NoVarAcc,NoIncFock) maxdisk=120G
 B geom=allcheck
 ----------------------------------------------------------------------

 Structure from the checkpoint file:  "SM40.a.8.pdb.xyz.mst.a.w.chk"
 ----------------
 SM40.a.8.pdb.xyz
 ----------------
 Charge = -1 Multiplicity = 1

                         Standard orientation:
 ---------------------------------------------------------------------
 Center     Atomic      Atomic             Coordinates (Angstroms)
 Number     Number       Type             X           Y           Z
 ---------------------------------------------------------------------
      1          8           0        2.010901    1.758801   -1.286579
      2         16           0        0.597453    1.718763   -0.806630
      3          7           0       -0.077211    0.295590   -0.736760
      4          6           0        0.687306   -0.875016   -0.338330
      5          6           0        1.499443   -0.778468    1.013750
      6         16           0        2.944954   -1.529729    0.221196
      7          6           0        1.932225   -1.227431   -1.257087
      8          8           0        4.180223   -0.716458    0.300703
      9          8           0        3.060325   -2.976128    0.533919
     10          6           0       -0.255411   -2.096840   -0.314540
     11          6           0       -1.386418   -2.083507    0.731042
     12          6           0       -2.650540   -1.326303    0.374972
     13          6           0       -3.291011   -1.513453   -0.858463
     14          6           0       -4.485655   -0.857343   -1.155322
     15          6           0       -5.070121   -0.000404   -0.218940
     16          6           0       -4.448381    0.189387    1.015580
     17          6           0       -3.251794   -0.469869    1.306502
     18          7           0        0.754946    2.309571    0.823542
     19          6           0        1.575898    3.522101    0.917877
     20          6           0       -0.538773    2.486005    1.488552
     21          8           0       -0.327004    2.634770   -1.528541
     22          1           0        1.119167   -1.351094    1.858440
     23          1           0        1.706236    0.253232    1.300813
     24          1           0        1.833060   -2.097392   -1.906671
     25          1           0        2.311375   -0.352969   -1.782613
     26          1           0        0.361241   -2.984529   -0.132863
     27          1           0       -0.675799   -2.214179   -1.318873
     28          1           0       -1.002727   -1.708308    1.686903
     29          1           0       -1.663585   -3.129530    0.916294
     30          1           0       -2.850031   -2.179243   -1.594444
     31          1           0       -4.961796   -1.016615   -2.117945
     32          1           0       -5.999026    0.511104   -0.449540
     33          1           0       -4.892018    0.850361    1.753447
     34          1           0       -2.775485   -0.321567    2.271849
     35          1           0        2.533547    3.348183    0.431029
     36          1           0        1.744431    3.736057    1.976810
     37          1           0        1.090675    4.397553    0.460956
     38          1           0       -1.139586    1.585177    1.366452
     39          1           0       -1.100427    3.345091    1.095038
     40          1           0       -0.358077    2.646961    2.554810
 ---------------------------------------------------------------------

 SCF Done:  E(RHF) =  -1706.70257704     A.U. after   16 cycles
 E2 =    -0.3340997551D+01 EUMP2 =    -0.17100435745928D+04

 The electronic state is 1-A.
 Alpha  occ. eigenvalues --  -92.06607 -92.06519 -20.43477 -20.43093 -20.39273
 Alpha  occ. eigenvalues --  -20.38612 -15.46335 -15.38840 -11.18640 -11.15741
 Alpha  occ. eigenvalues --  -11.15538 -11.15475 -11.15126 -11.15087 -11.14748
 Alpha  occ. eigenvalues --  -11.14688 -11.14668 -11.14625 -11.14525 -11.14434
 Alpha  occ. eigenvalues --  -11.13278  -9.03968  -9.02979  -6.72460  -6.72361
 Alpha  occ. eigenvalues --   -6.72273  -6.71540  -6.71471  -6.71436  -1.31174
 Alpha  occ. eigenvalues --   -1.28878  -1.20019  -1.15910  -1.10020  -1.07733
 Alpha  occ. eigenvalues --   -1.06361  -0.98296  -0.96870  -0.92548  -0.89871
 Alpha  occ. eigenvalues --   -0.84640  -0.84363  -0.80977  -0.77762  -0.73960
 Alpha  occ. eigenvalues --   -0.72403  -0.69434  -0.66383  -0.61884  -0.60744
 Alpha  occ. eigenvalues --   -0.57489  -0.56402  -0.55155  -0.54215  -0.53652
 Alpha  occ. eigenvalues --   -0.53482  -0.52323  -0.51242  -0.50546  -0.50091
 Alpha  occ. eigenvalues --   -0.49390  -0.48507  -0.47995  -0.47049  -0.46439
 Alpha  occ. eigenvalues --   -0.44533  -0.43926  -0.43552  -0.43108  -0.41055
 Alpha  occ. eigenvalues --   -0.40429  -0.40148  -0.38882  -0.38301  -0.37301
 Alpha  occ. eigenvalues --   -0.36632  -0.36135  -0.34224  -0.33784  -0.33086
 Alpha  occ. eigenvalues --   -0.32365  -0.30451  -0.29964  -0.26049  -0.25703
 Alpha  occ. eigenvalues --   -0.24621  -0.23128  -0.21811
 Alpha virt. eigenvalues --    0.09621   0.10406   0.10680   0.11568   0.11847
 Alpha virt. eigenvalues --    0.12224   0.12984   0.13883   0.13981   0.14227
 Alpha virt. eigenvalues --    0.14667   0.15511   0.16018   0.16446   0.16617

 Mulliken charges:
               1
     1  O   -1.306922
     2  S    3.091990
     3  N   -1.755875
     4  C    0.370998
     5  C    0.618314
     6  S    2.944541
     7  C    0.452189
     8  O   -1.301422
     9  O   -1.327384
    10  C    0.607547
    11  C    0.197255
    12  C    0.682596
    13  C    0.752786
    14  C    0.063394
    15  C    0.766405
    16  C   -0.016407
    17  C    0.920720
    18  N   -1.095400
    19  C    0.878871
    20  C    0.899083
    21  O   -1.282744
    22  H   -0.344462
    23  H   -0.343919
    24  H   -0.350816
    25  H   -0.241796
    26  H   -0.136578
    27  H   -0.203408
    28  H   -0.284839
    29  H   -0.081804
    30  H   -0.727145
    31  H   -0.532927
    32  H   -0.476900
    33  H   -0.545425
    34  H   -0.713670
    35  H   -0.185702
    36  H   -0.178043
    37  H   -0.061743
    38  H   -0.536085
    39  H   -0.006568
    40  H   -0.208701
 Sum of Mulliken charges =  -1.00000

 Dipole moment (field-independent basis, Debye):
    X=             -7.3594    Y=             -2.1617    Z=              4.0387  Tot=              8.6686
 Quadrupole moment (field-independent basis, Debye-Ang):
   XX=           -196.8264   YY=           -172.3781   ZZ=           -147.3818
   XY=              9.0254   XZ=             -2.0177   YZ=             20.0584

 Normal termination of Gaussian 16 at Thu Sep 24 03:21:01 2020.
