 Gaussian 16, Revision B.01,

 ----------------------------------------------------------------------
 #p b3lyp/6-31G(d) opt freq NoSymm scf=(MaxCycle=2000,NoVarAcc,NoIncFoc
 k) scrf=(iefpcm,read,solvent=water)
 ----------------------------------------------------------------------

 -------------------
 SM41_m1.b.7.pdb.xyz
 -------------------
 Symbolic Z-matrix:
 Charge =  1 Multiplicity = 1

 SCF Done:  E(RB3LYP) =  -1120.77318763     A.U. after   13 cycles
 SCF Done:  E(RB3LYP) =  -1120.79286450     A.U. after   11 cycles
 SCF Done:  E(RB3LYP) =  -1120.79680115     A.U. after   11 cycles
 SCF Done:  E(RB3LYP) =  -1120.79760452     A.U. after   10 cycles
 SCF Done:  E(RB3LYP) =  -1120.79794992     A.U. after   10 cycles
 SCF Done:  E(RB3LYP) =  -1120.79811930     A.U. after   10 cycles
 SCF Done:  E(RB3LYP) =  -1120.79819582     A.U. after    9 cycles
 SCF Done:  E(RB3LYP) =  -1120.79824644     A.U. after    9 cycles
 SCF Done:  E(RB3LYP) =  -1120.79829774     A.U. after    9 cycles
 SCF Done:  E(RB3LYP) =  -1120.79830542     A.U. after    9 cycles
 SCF Done:  E(RB3LYP) =  -1120.79838029     A.U. after    7 cycles
 SCF Done:  E(RB3LYP) =  -1120.79838112     A.U. after    8 cycles
 SCF Done:  E(RB3LYP) =  -1120.79837945     A.U. after    8 cycles
 SCF Done:  E(RB3LYP) =  -1120.79837988     A.U. after    6 cycles
 SCF Done:  E(RB3LYP) =  -1120.79838100     A.U. after    8 cycles
 SCF Done:  E(RB3LYP) =  -1120.79837984     A.U. after    8 cycles
 Optimization completed.
    -- Stationary point found.
 Normal termination of Gaussian 16 at Thu Sep 24 05:02:13 2020.

 --------------------------------------------------------------------
 #P Geom=AllCheck Guess=TCheck SCRF=Check GenChk RB3LYP/6-31G(d) Freq
 --------------------------------------------------------------------

 Structure from the checkpoint file:  "SM41_m1.b.7.pdb.xyz.mst.b.w.chk"
 -------------------
 SM41_m1.b.7.pdb.xyz
 -------------------
 Charge =  1 Multiplicity = 1

 SCF Done:  E(RB3LYP) =  -1120.79837984     A.U. after    1 cycles

  Exact polarizability: 311.158 -16.522 197.776   6.649  -1.142  87.301
 Approx polarizability: 329.801 -16.891 242.648  11.898   1.083 102.205

                      1                      2                      3
                      A                      A                      A
 Frequencies --     33.2263                38.2109                63.0355
 Red. masses --      5.3215                 4.1086                 5.9220
 Frc consts  --      0.0035                 0.0035                 0.0139
 IR Inten    --      5.7078                 2.1636                 7.7657

                      4                      5                      6
                      A                      A                      A
 Frequencies --     76.0572                93.5683               158.3447
 Red. masses --      6.5365                 4.8953                 6.2913
 Frc consts  --      0.0223                 0.0253                 0.0929
 IR Inten    --      2.5986                 4.3110                 5.1386

                      7                      8                      9
                      A                      A                      A
 Frequencies --    201.3897               235.0623               246.4089
 Red. masses --      3.2119                 2.4481                 1.6796
 Frc consts  --      0.0768                 0.0797                 0.0601
 IR Inten    --     42.2324                55.9548                 2.3721

                     10                     11                     12
                      A                      A                      A
 Frequencies --    254.1061               286.7415               299.4560
 Red. masses --      2.9621                 3.1106                 5.7525
 Frc consts  --      0.1127                 0.1507                 0.3039
 IR Inten    --      4.4767                10.7078                 9.0629

                     13                     14                     15
                      A                      A                      A
 Frequencies --    329.5514               382.6412               402.3871
 Red. masses --      4.2624                 6.4090                 1.8161
 Frc consts  --      0.2727                 0.5529                 0.1733
 IR Inten    --      2.1477                 9.7671                46.6249

                     16                     17                     18
                      A                      A                      A
 Frequencies --    410.4842               434.8951               459.8120
 Red. masses --      2.9227                 1.2762                 5.0948
 Frc consts  --      0.2901                 0.1422                 0.6347
 IR Inten    --      0.2455               264.9962                10.0556

                     19                     20                     21
                      A                      A                      A
 Frequencies --    478.4988               489.6597               514.2559
 Red. masses --      7.9085                 3.2071                 7.8398
 Frc consts  --      1.0669                 0.4531                 1.2215
 IR Inten    --     83.9520                10.3629               169.8023

                     22                     23                     24
                      A                      A                      A
 Frequencies --    629.3271               654.3396               685.6828
 Red. masses --      6.4537                 6.0402                 6.6200
 Frc consts  --      1.5059                 1.5237                 1.8338
 IR Inten    --      0.2726                12.9886                19.1219

                     25                     26                     27
                      A                      A                      A
 Frequencies --    701.2086               707.3107               730.9204
 Red. masses --      1.9593                 3.1385                 6.0182
 Frc consts  --      0.5676                 0.9251                 1.8943
 IR Inten    --     35.9857                25.5293                38.5854

                     28                     29                     30
                      A                      A                      A
 Frequencies --    758.9908               788.3379               834.2502
 Red. masses --      5.6374                 1.7541                 1.7475
 Frc consts  --      1.9134                 0.6423                 0.7166
 IR Inten    --     86.7053                60.5419                69.1957

                     31                     32                     33
                      A                      A                      A
 Frequencies --    841.7514               862.4954               948.5073
 Red. masses --      3.4919                 1.2530                 7.3235
 Frc consts  --      1.4578                 0.5492                 3.8820
 IR Inten    --    251.3515                 0.0243                39.7089

                     34                     35                     36
                      A                      A                      A
 Frequencies --    956.2964               988.9029              1015.6402
 Red. masses --      1.3795                 1.3570                 1.4857
 Frc consts  --      0.7433                 0.7819                 0.9030
 IR Inten    --      2.4722                 0.0407               122.2971

                     37                     38                     39
                      A                      A                      A
 Frequencies --   1017.6078              1021.6413              1026.5540
 Red. masses --      4.1841                 1.2884                 1.3348
 Frc consts  --      2.5528                 0.7923                 0.8288
 IR Inten    --     12.2103                 0.0203                14.5770

                     40                     41                     42
                      A                      A                      A
 Frequencies --   1037.8016              1052.0649              1066.8887
 Red. masses --      5.5964                 2.6309                 1.7915
 Frc consts  --      3.5513                 1.7157                 1.2015
 IR Inten    --     18.2345                 9.8066                39.0601

                     43                     44                     45
                      A                      A                      A
 Frequencies --   1114.9607              1127.4064              1157.1640
 Red. masses --      1.6498                 8.6907                 5.5455
 Frc consts  --      1.2084                 6.5083                 4.3750
 IR Inten    --     51.1292               357.6129                14.0434

                     46                     47                     48
                      A                      A                      A
 Frequencies --   1194.0794              1209.0605              1237.2758
 Red. masses --      1.0925                 1.1348                 1.8392
 Frc consts  --      0.9178                 0.9774                 1.6588
 IR Inten    --      0.3590                19.7707                33.3748

                     49                     50                     51
                      A                      A                      A
 Frequencies --   1268.8565              1321.3857              1350.8538
 Red. masses --      2.6670                 5.7832                 2.2324
 Frc consts  --      2.5299                 5.9495                 2.4002
 IR Inten    --     12.2160               170.3996               150.7987

                     52                     53                     54
                      A                      A                      A
 Frequencies --   1372.3368              1376.2094              1398.8883
 Red. masses --      3.2489                 1.7160                 1.1927
 Frc consts  --      3.6050                 1.9148                 1.3752
 IR Inten    --     29.4576               153.9864                30.4399

                     55                     56                     57
                      A                      A                      A
 Frequencies --   1429.0513              1476.1260              1483.6559
 Red. masses --      1.8305                 1.0487                 1.0579
 Frc consts  --      2.2026                 1.3463                 1.3720
 IR Inten    --    386.1849                 6.5005                 5.2581

                     58                     59                     60
                      A                      A                      A
 Frequencies --   1493.1989              1511.0966              1538.1616
 Red. masses --      2.3235                 3.0979                 2.3947
 Frc consts  --      3.0523                 4.1678                 3.3381
 IR Inten    --     29.2539               637.4917                34.7186

                     61                     62                     63
                      A                      A                      A
 Frequencies --   1605.4243              1638.3966              1648.5908
 Red. masses --      5.5621                 5.1246                 6.3109
 Frc consts  --      8.4464                 8.1049                10.1057
 IR Inten    --     20.3993               565.0786               654.2411

                     64                     65                     66
                      A                      A                      A
 Frequencies --   1660.7740              3109.2790              3212.5935
 Red. masses --      5.5535                 1.0290                 1.1073
 Frc consts  --      9.0249                 5.8611                 6.7335
 IR Inten    --     47.8364                 0.9499                 1.9135

                     67                     68                     69
                      A                      A                      A
 Frequencies --   3216.7341              3224.7298              3226.3226
 Red. masses --      1.0864                 1.0888                 1.1096
 Frc consts  --      6.6233                 6.6710                 6.8048
 IR Inten    --      0.0139                 6.9089                 0.7263

                     70                     71                     72
                      A                      A                      A
 Frequencies --   3232.0610              3239.1490              3243.1978
 Red. masses --      1.0920                 1.0943                 1.0974
 Frc consts  --      6.7209                 6.7646                 6.8010
 IR Inten    --     26.6918                27.9859                14.8273

                     73                     74                     75
                      A                      A                      A
 Frequencies --   3357.2601              3481.0012              3594.1552
 Red. masses --      1.0986                 1.0781                 1.0868
 Frc consts  --      7.2955                 7.6972                 8.2717
 IR Inten    --     28.5589               387.6062               642.4127

 - Thermochemistry -
 -------------------
 Temperature   298.150 Kelvin.  Pressure   1.00000 Atm.
 Atom     1 has atomic number  8 and mass  15.99491

 Molecular mass:   239.04904 amu.
 Principal axes and moments of inertia in atomic units:
                           1         2         3
     Eigenvalues --  1368.970078650.756529574.97676
           X            0.99990  -0.01297  -0.00500
           Y            0.01321   0.99862   0.05085
           Z            0.00434  -0.05091   0.99869
 This molecule is an asymmetric top.
 Rotational symmetry number  1.
 Warning -- assumption of classical behavior for rotation
           may cause significant error
 Rotational temperatures (Kelvin)      0.06327     0.01001     0.00905
 Rotational constants (GHZ):           1.31832     0.20862     0.18849
 Zero-point vibrational energy     544084.0 (Joules/Mol)
                                  130.03921 (Kcal/Mol)
 Warning -- explicit consideration of  21 degrees of freedom as
           vibrations may cause significant error
 Vibrational temperatures:     47.81    54.98    90.69   109.43   134.62
          (Kelvin)            227.82   289.75   338.20   354.53   365.60
                              412.56   430.85   474.15   550.54   578.95
                              590.60   625.72   661.57   688.45   704.51
                              739.90   905.46   941.45   986.54  1008.88
                             1017.66  1051.63  1092.02  1134.24  1200.30
                             1211.09  1240.94  1364.69  1375.90  1422.81
                             1461.28  1464.11  1469.91  1476.98  1493.17
                             1513.69  1535.01  1604.18  1622.09  1664.90
                             1718.01  1739.57  1780.16  1825.60  1901.18
                             1943.58  1974.49  1980.06  2012.69  2056.09
                             2123.82  2134.65  2148.38  2174.13  2213.07
                             2309.85  2357.29  2371.95  2389.48  4473.56
                             4622.21  4628.16  4639.67  4641.96  4650.21
                             4660.41  4666.24  4830.35  5008.38  5171.19

 Zero-point correction=                           0.207231 (Hartree/Particle)
 Thermal correction to Energy=                    0.221846
 Thermal correction to Enthalpy=                  0.222791
 Thermal correction to Gibbs Free Energy=         0.164168
 Sum of electronic and zero-point Energies=          -1120.591149
 Sum of electronic and thermal Energies=             -1120.576534
 Sum of electronic and thermal Enthalpies=           -1120.575589
 Sum of electronic and thermal Free Energies=        -1120.634212

                     E (Thermal)             CV                S
                      KCal/Mol        Cal/Mol-Kelvin    Cal/Mol-Kelvin
 Total                  139.211             55.491            123.382
 Electronic               0.000              0.000              0.000
 Translational            0.889              2.981             42.316
 Rotational               0.889              2.981             33.094
 Vibrational            137.433             49.529             47.972
 Vibration     1          0.594              1.983              5.627
 Vibration     2          0.594              1.982              5.350
 Vibration     3          0.597              1.972              4.360
 Vibration     4          0.599              1.965              3.990
 Vibration     5          0.603              1.954              3.584
 Vibration     6          0.621              1.893              2.569
 Vibration     7          0.638              1.838              2.120
 Vibration     8          0.655              1.787              1.840
 Vibration     9          0.661              1.769              1.756
 Vibration    10          0.665              1.756              1.702
 Vibration    11          0.684              1.698              1.493
 Vibration    12          0.692              1.675              1.420
 Vibration    13          0.712              1.616              1.262
 Vibration    14          0.752              1.507              1.029
 Vibration    15          0.768              1.465              0.954
 Vibration    16          0.775              1.447              0.925
 Vibration    17          0.795              1.394              0.843
 Vibration    18          0.818              1.339              0.767
 Vibration    19          0.835              1.298              0.714
 Vibration    20          0.846              1.273              0.684
 Vibration    21          0.869              1.218              0.623

 Optimization completed.
    -- Stationary point found.
 Normal termination of Gaussian 16 at Thu Sep 24 05:08:18 2020.

 ----------------------------------------------------------------------
 #p b3lyp/6-31G(d) scrf=(iefpcm,read,solvent=water) geom=allcheck guess
 =read
 ----------------------------------------------------------------------

 Structure from the checkpoint file:  "SM41_m1.b.7.pdb.xyz.mst.b.w.chk"
 -------------------
 SM41_m1.b.7.pdb.xyz
 -------------------
 Charge =  1 Multiplicity = 1

 SCF Done:  E(RB3LYP) =  -1120.79840384     A.U. after    7 cycles
 Normal termination of Gaussian 16 at Thu Sep 24 05:08:46 2020.

 -----------------------------
 #p B3LYP/6-31G* geom=allcheck
 -----------------------------

 Structure from the checkpoint file:  "SM41_m1.b.7.pdb.xyz.mst.b.w.chk"
 -------------------
 SM41_m1.b.7.pdb.xyz
 -------------------
 Charge =  1 Multiplicity = 1

 SCF Done:  E(RB3LYP) =  -1120.69311500     A.U. after   16 cycles
 Normal termination of Gaussian 16 at Thu Sep 24 05:09:20 2020.
 Gaussian 16:  ES64L-G16RevB.01 20-Dec-2017

 ----------------------------------------------------------------------
 #p mp2/aug-cc-pVDZ scf=(MaxCycle=2000,NoVarAcc,NoIncFock) maxdisk=120G
 B geom=allcheck
 ----------------------------------------------------------------------

 Structure from the checkpoint file:  "SM41_m1.b.7.pdb.xyz.mst.b.w.chk"
 -------------------
 SM41_m1.b.7.pdb.xyz
 -------------------
 Charge =  1 Multiplicity = 1

                         Standard orientation:
 ---------------------------------------------------------------------
 Center     Atomic      Atomic             Coordinates (Angstroms)
 Number     Number       Type             X           Y           Z
 ---------------------------------------------------------------------
      1          8           0       -4.615248   -0.141131   -0.746802
      2         16           0       -3.355166   -0.505807   -0.105075
      3          7           0       -2.386929    0.901120   -0.257273
      4          6           0       -1.033923    0.935813   -0.144529
      5          7           0       -0.379969    2.089818   -0.004450
      6          8           0        0.972592    1.880172    0.033372
      7          6           0        1.146430    0.534899   -0.055259
      8          6           0        2.510770    0.042814   -0.017725
      9          6           0        2.740862   -1.340620   -0.105165
     10          6           0        4.041945   -1.829490   -0.067996
     11          6           0        5.118325   -0.946590    0.055881
     12          6           0        4.892349    0.429520    0.142150
     13          6           0        3.594220    0.928500    0.105965
     14          6           0       -0.067104   -0.095103   -0.169326
     15          6           0       -3.605617   -0.687838    1.658087
     16          8           0       -2.550656   -1.618862   -0.607367
     17          1           0        1.904290   -2.022431   -0.201145
     18          1           0        4.217098   -2.897243   -0.135102
     19          1           0        6.132064   -1.330710    0.085188
     20          1           0        5.727871    1.113346    0.238006
     21          1           0        3.415697    1.994935    0.172984
     22          1           0       -0.265377   -1.146257   -0.271346
     23          1           0       -4.100166    0.208467    2.030180
     24          1           0       -2.638985   -0.839813    2.137153
     25          1           0       -4.243070   -1.563462    1.788417
     26          1           0       -0.678453    3.062329    0.009847
     27          1           0       -2.903070    1.784329   -0.187052
 ---------------------------------------------------------------------

 SCF Done:  E(RHF) =  -1115.83388982     A.U. after   16 cycles
 E2 =    -0.2430076462D+01 EUMP2 =    -0.11182639662862D+04

 The electronic state is 1-A.
 Alpha  occ. eigenvalues --  -92.38278 -20.85942 -20.70939 -20.70425 -15.86971
 Alpha  occ. eigenvalues --  -15.81063 -11.56981 -11.52757 -11.42728 -11.41464
 Alpha  occ. eigenvalues --  -11.40045 -11.39100 -11.38943 -11.38058 -11.37011
 Alpha  occ. eigenvalues --  -11.36976  -9.35020  -7.03552  -7.03523  -7.03353
 Alpha  occ. eigenvalues --   -1.71886  -1.61174  -1.48850  -1.47612  -1.36954
 Alpha  occ. eigenvalues --   -1.30872  -1.27337  -1.19003  -1.17492  -1.15636
 Alpha  occ. eigenvalues --   -1.06959  -1.04919  -1.01241  -0.98084  -0.96259
 Alpha  occ. eigenvalues --   -0.93859  -0.88627  -0.87682  -0.86650  -0.85476
 Alpha  occ. eigenvalues --   -0.82311  -0.80490  -0.79517  -0.78803  -0.77558
 Alpha  occ. eigenvalues --   -0.75363  -0.74937  -0.73918  -0.72764  -0.72329
 Alpha  occ. eigenvalues --   -0.72275  -0.65811  -0.65160  -0.64341  -0.63927
 Alpha  occ. eigenvalues --   -0.62918  -0.61456  -0.61044  -0.60140  -0.56378
 Alpha  occ. eigenvalues --   -0.47018  -0.46547
 Alpha virt. eigenvalues --   -0.09943  -0.08636  -0.06031  -0.05585  -0.04296
 Alpha virt. eigenvalues --   -0.03722  -0.03156  -0.02851  -0.02597  -0.01978
 Alpha virt. eigenvalues --   -0.01576  -0.00986  -0.00650  -0.00100  -0.00005

 Mulliken charges:
               1
     1  O   -1.061521
     2  S    2.658781
     3  N   -0.812303
     4  C    0.005782
     5  N   -0.024642
     6  O   -1.056643
     7  C   -0.147373
     8  C    1.706890
     9  C    0.493910
    10  C    0.147659
    11  C    0.493506
    12  C    0.281714
    13  C    0.278187
    14  C    2.128822
    15  C    0.112182
    16  O   -1.139013
    17  H   -0.554631
    18  H   -0.466298
    19  H   -0.410495
    20  H   -0.424990
    21  H   -0.658374
    22  H   -0.630047
    23  H    0.040167
    24  H    0.015015
    25  H    0.084891
    26  H    0.009745
    27  H   -0.070920
 Sum of Mulliken charges =   1.00000

 Dipole moment (field-independent basis, Debye):
    X=              1.6805    Y=              4.6656    Z=              4.3226  Tot=              6.5785
 Quadrupole moment (field-independent basis, Debye-Ang):
   XX=            -54.2339   YY=            -74.4238   ZZ=            -99.1333
   XY=            -11.8640   XZ=            -16.9965   YZ=             -3.3270

 Normal termination of Gaussian 16 at Thu Sep 24 05:32:08 2020.
