 Gaussian 16, Revision B.01,

 ----------------------------------------------------------------------
 #p b3lyp/6-31G(d) opt freq NoSymm scf=(MaxCycle=2000,NoVarAcc,NoIncFoc
 k) scrf=(iefpcm,read,solvent=water)
 ----------------------------------------------------------------------

 -------------------
 SM41_m0.n.4.pdb.xyz
 -------------------
 Symbolic Z-matrix:
 Charge =  0 Multiplicity = 1

 SCF Done:  E(RB3LYP) =  -1120.35899725     A.U. after   13 cycles
 SCF Done:  E(RB3LYP) =  -1120.35900243     A.U. after    9 cycles
 SCF Done:  E(RB3LYP) =  -1120.35899538     A.U. after    9 cycles
 SCF Done:  E(RB3LYP) =  -1120.35897665     A.U. after    9 cycles
 SCF Done:  E(RB3LYP) =  -1120.35900542     A.U. after    9 cycles
 SCF Done:  E(RB3LYP) =  -1120.35897806     A.U. after   10 cycles
 SCF Done:  E(RB3LYP) =  -1120.35897270     A.U. after    8 cycles
 SCF Done:  E(RB3LYP) =  -1120.35897411     A.U. after    8 cycles
 SCF Done:  E(RB3LYP) =  -1120.35900526     A.U. after   10 cycles
 SCF Done:  E(RB3LYP) =  -1120.35897731     A.U. after   10 cycles
 SCF Done:  E(RB3LYP) =  -1120.35897830     A.U. after    7 cycles
 SCF Done:  E(RB3LYP) =  -1120.35900540     A.U. after   10 cycles
 SCF Done:  E(RB3LYP) =  -1120.35897971     A.U. after   10 cycles
 Optimization completed.
    -- Stationary point found.
 Normal termination of Gaussian 16 at Tue Sep 22 18:18:34 2020.

 --------------------------------------------------------------------
 #P Geom=AllCheck Guess=TCheck SCRF=Check GenChk RB3LYP/6-31G(d) Freq
 --------------------------------------------------------------------

 Structure from the checkpoint file:  "SM41_m0.n.4.pdb.xyz.mst.n.w.chk"
 -------------------
 SM41_m0.n.4.pdb.xyz
 -------------------
 Charge =  0 Multiplicity = 1

 SCF Done:  E(RB3LYP) =  -1120.35897971     A.U. after    1 cycles

  Exact polarizability: 301.725  -6.505 193.189   4.654   3.341  89.443
 Approx polarizability: 314.432 -11.407 248.051   7.253   7.899 106.236

                      1                      2                      3
                      A                      A                      A
 Frequencies --     28.1833                36.2638                65.4906
 Red. masses --      4.7572                 5.6010                 4.9886
 Frc consts  --      0.0022                 0.0043                 0.0126
 IR Inten    --      3.1128                 2.5136                10.3523

                      4                      5                      6
                      A                      A                      A
 Frequencies --     79.3370                98.7107               140.2387
 Red. masses --      6.6711                 5.0165                 6.3863
 Frc consts  --      0.0247                 0.0288                 0.0740
 IR Inten    --      8.5589                 2.4262                 3.2672

                      7                      8                      9
                      A                      A                      A
 Frequencies --    215.2974               232.1072               242.0925
 Red. masses --      4.4890                 1.1502                 5.5737
 Frc consts  --      0.1226                 0.0365                 0.1925
 IR Inten    --      0.5832                 0.8528                 1.9741

                     10                     11                     12
                      A                      A                      A
 Frequencies --    273.0192               292.9959               339.9117
 Red. masses --      4.8343                 5.1861                 4.4139
 Frc consts  --      0.2123                 0.2623                 0.3005
 IR Inten    --      3.8059                 1.9748                 3.5606

                     13                     14                     15
                      A                      A                      A
 Frequencies --    386.7542               394.0359               411.6978
 Red. masses --      8.2106                 7.3410                 2.9613
 Frc consts  --      0.7236                 0.6715                 0.2957
 IR Inten    --      1.4056                 7.1984                 0.0164

                     16                     17                     18
                      A                      A                      A
 Frequencies --    439.1733               456.7507               482.9237
 Red. masses --      1.2824                 4.6942                 7.1371
 Frc consts  --      0.1457                 0.5770                 0.9807
 IR Inten    --    210.6779                51.6065                65.4624

                     19                     20                     21
                      A                      A                      A
 Frequencies --    498.5999               529.6549               630.4410
 Red. masses --      4.2198                 6.5712                 6.4450
 Frc consts  --      0.6181                 1.0861                 1.5092
 IR Inten    --      0.5052                92.8973                 0.0264

                     22                     23                     24
                      A                      A                      A
 Frequencies --    660.6826               693.0252               703.3146
 Red. masses --      8.3087                 6.3130                 1.7119
 Frc consts  --      2.1368                 1.7864                 0.4989
 IR Inten    --      0.1115                21.4976                34.7994

                     25                     26                     27
                      A                      A                      A
 Frequencies --    708.0223               723.6352               778.6668
 Red. masses --      3.7957                 5.9656                 1.4513
 Frc consts  --      1.1211                 1.8405                 0.5185
 IR Inten    --      0.5042                73.1655               113.3835

                     28                     29                     30
                      A                      A                      A
 Frequencies --    790.3450               805.3111               845.2897
 Red. masses --      6.5829                 1.9912                 5.3982
 Frc consts  --      2.4227                 0.7609                 2.2725
 IR Inten    --     48.9906                 7.3056               195.4016

                     31                     32                     33
                      A                      A                      A
 Frequencies --    863.3696               943.7175               961.3520
 Red. masses --      1.2544                 1.3894                 8.6753
 Frc consts  --      0.5509                 0.7291                 4.7239
 IR Inten    --      0.0207                 2.9132                 8.2420

                     34                     35                     36
                      A                      A                      A
 Frequencies --    969.3344               984.5914              1008.0100
 Red. masses --      9.1309                 1.3513                 1.3971
 Frc consts  --      5.0549                 0.7718                 0.8364
 IR Inten    --     41.0117                 0.0439                73.2166

                     37                     38                     39
                      A                      A                      A
 Frequencies --   1013.6730              1015.0741              1016.7088
 Red. masses --      1.3743                 1.2684                 6.0677
 Frc consts  --      0.8320                 0.7700                 3.6955
 IR Inten    --     59.5464                 0.0520                 0.6243

                     40                     41                     42
                      A                      A                      A
 Frequencies --   1050.0312              1068.0767              1090.7323
 Red. masses --      2.4753                 2.6887                 3.2794
 Frc consts  --      1.6080                 1.8071                 2.2987
 IR Inten    --      5.6051                31.7916                50.1185

                     43                     44                     45
                      A                      A                      A
 Frequencies --   1110.3118              1123.7907              1189.2045
 Red. masses --      1.5819                11.4660                 1.0933
 Frc consts  --      1.1490                 8.5316                 0.9110
 IR Inten    --     17.6727               421.8863                 0.1234

                     46                     47                     48
                      A                      A                      A
 Frequencies --   1204.4376              1220.6984              1291.0603
 Red. masses --      1.1604                 1.8535                 5.0831
 Frc consts  --      0.9918                 1.6273                 4.9919
 IR Inten    --     10.8324                31.9178               116.0552

                     49                     50                     51
                      A                      A                      A
 Frequencies --   1301.4874              1346.1495              1369.4247
 Red. masses --      6.7161                 2.7961                 2.1343
 Frc consts  --      6.7027                 2.9853                 2.3582
 IR Inten    --    190.1385                21.3388                 1.0876

                     52                     53                     54
                      A                      A                      A
 Frequencies --   1378.6596              1390.5278              1470.6808
 Red. masses --      1.1987                 1.9051                 1.0591
 Frc consts  --      1.3424                 2.1704                 1.3497
 IR Inten    --     18.7404                53.0413                 8.2271

                     55                     56                     57
                      A                      A                      A
 Frequencies --   1482.6122              1493.2199              1515.9037
 Red. masses --      1.0648                 2.3116                 3.1604
 Frc consts  --      1.3791                 3.0368                 4.2790
 IR Inten    --     10.9689                40.1386               746.4150

                     58                     59                     60
                      A                      A                      A
 Frequencies --   1519.6769              1556.4196              1629.6006
 Red. masses --      3.0735                 3.6190                 5.4703
 Frc consts  --      4.1821                 5.1652                 8.5591
 IR Inten    --     13.0239                37.8449               110.0660

                     61                     62                     63
                      A                      A                      A
 Frequencies --   1652.7821              1666.1948              3106.5850
 Red. masses --      6.4833                 6.0343                 1.0288
 Frc consts  --     10.4346                 9.8703                 5.8498
 IR Inten    --    108.5313                70.1884                 1.0164

                     64                     65                     66
                      A                      A                      A
 Frequencies --   3207.8137              3211.3680              3213.9026
 Red. masses --      1.0859                 1.1074                 1.0886
 Frc consts  --      6.5833                 6.7291                 6.6250
 IR Inten    --      1.9065                 1.5170                 6.8982

                     67                     68                     69
                      A                      A                      A
 Frequencies --   3220.5230              3222.3967              3230.4925
 Red. masses --      1.1089                 1.0926                 1.0960
 Frc consts  --      6.7763                 6.6848                 6.7393
 IR Inten    --      0.5295                38.8176                38.9781

                     70                     71                     72
                      A                      A                      A
 Frequencies --   3238.5461              3318.1390              3549.2646
 Red. masses --      1.0946                 1.0988                 1.0778
 Frc consts  --      6.7642                 7.1275                 7.9993
 IR Inten    --     11.2639                 1.9284               221.6566

 - Thermochemistry -
 -------------------
 Temperature   298.150 Kelvin.  Pressure   1.00000 Atm.
 Atom     1 has atomic number  8 and mass  15.99491

 Molecular mass:   238.04121 amu.
 Principal axes and moments of inertia in atomic units:
                           1         2         3
     Eigenvalues --   944.396319848.53578**********
           X            0.99997   0.00211  -0.00736
           Y           -0.00223   0.99986  -0.01675
           Z            0.00732   0.01676   0.99983
 This molecule is an asymmetric top.
 Rotational symmetry number  1.
 Warning -- assumption of classical behavior for rotation
           may cause significant error
 Rotational temperatures (Kelvin)      0.09171     0.00879     0.00836
 Rotational constants (GHZ):           1.91100     0.18325     0.17425
 Zero-point vibrational energy     510796.6 (Joules/Mol)
                                  122.08331 (Kcal/Mol)
 Warning -- explicit consideration of  20 degrees of freedom as
           vibrations may cause significant error
 Vibrational temperatures:     40.55    52.18    94.23   114.15   142.02
          (Kelvin)            201.77   309.77   333.95   348.32   392.81
                              421.56   489.06   556.45   566.93   592.34
                              631.87   657.16   694.82   717.37   762.06
                              907.06   950.57   997.11  1011.91  1018.69
                             1041.15  1120.33  1137.13  1158.66  1216.18
                             1242.20  1357.80  1383.17  1394.66  1416.61
                             1450.30  1458.45  1460.47  1462.82  1510.76
                             1536.72  1569.32  1597.49  1616.88  1711.00
                             1732.92  1756.31  1857.55  1872.55  1936.81
                             1970.30  1983.58  2000.66  2115.98  2133.15
                             2148.41  2181.05  2186.48  2239.34  2344.63
                             2377.98  2397.28  4469.68  4615.33  4620.44
                             4624.09  4633.61  4636.31  4647.96  4659.55
                             4774.06  5106.60

 Zero-point correction=                           0.194552 (Hartree/Particle)
 Thermal correction to Energy=                    0.208708
 Thermal correction to Enthalpy=                  0.209652
 Thermal correction to Gibbs Free Energy=         0.151747
 Sum of electronic and zero-point Energies=          -1120.164428
 Sum of electronic and thermal Energies=             -1120.150271
 Sum of electronic and thermal Enthalpies=           -1120.149327
 Sum of electronic and thermal Free Energies=        -1120.207233

                     E (Thermal)             CV                S
                      KCal/Mol        Cal/Mol-Kelvin    Cal/Mol-Kelvin
 Total                  130.966             53.786            121.872
 Electronic               0.000              0.000              0.000
 Translational            0.889              2.981             42.303
 Rotational               0.889              2.981             32.932
 Vibrational            129.189             47.824             46.637
 Vibration     1          0.593              1.984              5.953
 Vibration     2          0.594              1.982              5.453
 Vibration     3          0.597              1.971              4.285
 Vibration     4          0.600              1.963              3.907
 Vibration     5          0.604              1.950              3.480
 Vibration     6          0.615              1.913              2.801
 Vibration     7          0.645              1.818              1.998
 Vibration     8          0.653              1.792              1.863
 Vibration     9          0.658              1.776              1.787
 Vibration    10          0.676              1.723              1.577
 Vibration    11          0.688              1.687              1.457
 Vibration    12          0.720              1.596              1.213
 Vibration    13          0.755              1.498              1.013
 Vibration    14          0.761              1.483              0.985
 Vibration    15          0.776              1.445              0.921
 Vibration    16          0.799              1.385              0.829
 Vibration    17          0.815              1.346              0.776
 Vibration    18          0.839              1.288              0.702
 Vibration    19          0.854              1.253              0.662
 Vibration    20          0.885              1.184              0.588

                           ! Non-Optimized Parameters !
 Normal termination of Gaussian 16 at Tue Sep 22 18:23:50 2020.

 ----------------------------------------------------------------------
 #p b3lyp/6-31G(d) scrf=(iefpcm,read,solvent=water) geom=allcheck guess
 =read
 ----------------------------------------------------------------------

 Structure from the checkpoint file:  "SM41_m0.n.4.pdb.xyz.mst.n.w.chk"
 -------------------
 SM41_m0.n.4.pdb.xyz
 -------------------
 Charge =  0 Multiplicity = 1

 SCF Done:  E(RB3LYP) =  -1120.35897712     A.U. after    5 cycles
 Normal termination of Gaussian 16 at Tue Sep 22 18:24:10 2020.

 -----------------------------
 #p B3LYP/6-31G* geom=allcheck
 -----------------------------

 Structure from the checkpoint file:  "SM41_m0.n.4.pdb.xyz.mst.n.w.chk"
 -------------------
 SM41_m0.n.4.pdb.xyz
 -------------------
 Charge =  0 Multiplicity = 1

 SCF Done:  E(RB3LYP) =  -1120.33266611     A.U. after   15 cycles
 Normal termination of Gaussian 16 at Tue Sep 22 18:24:37 2020.
 Gaussian 16:  ES64L-G16RevB.01 20-Dec-2017

 ----------------------------------------------------------------------
 #p mp2/aug-cc-pVDZ scf=(MaxCycle=2000,NoVarAcc,NoIncFock) maxdisk=120G
 B geom=allcheck
 ----------------------------------------------------------------------

 Structure from the checkpoint file:  "SM41_m0.n.4.pdb.xyz.mst.n.w.chk"
 -------------------
 SM41_m0.n.4.pdb.xyz
 -------------------
 Charge =  0 Multiplicity = 1

                         Standard orientation:
 ---------------------------------------------------------------------
 Center     Atomic      Atomic             Coordinates (Angstroms)
 Number     Number       Type             X           Y           Z
 ---------------------------------------------------------------------
      1          8           0       -4.660754    1.121575   -0.052081
      2         16           0       -3.640236    0.067922   -0.066659
      3          7           0       -2.186797    0.907721   -0.249713
      4          6           0       -0.928158    0.316888   -0.180854
      5          7           0       -0.762074   -0.992794   -0.193694
      6          8           0        0.629884   -1.173978   -0.134169
      7          6           0        1.244350    0.032650   -0.086604
      8          6           0        2.701703    0.042282   -0.021020
      9          6           0        3.392922    1.261699    0.072703
     10          6           0        4.783332    1.273817    0.137408
     11          6           0        5.499090    0.073746    0.109450
     12          6           0        4.816555   -1.141253    0.016283
     13          6           0        3.425582   -1.160664   -0.048745
     14          6           0        0.303071    1.023845   -0.112851
     15          6           0       -3.552827   -0.714548    1.542526
     16          8           0       -3.693893   -0.977220   -1.092823
     17          1           0       -2.245104    1.874687    0.068885
     18          1           0        2.841258    2.195093    0.097035
     19          1           0        5.308978    2.219851    0.210447
     20          1           0        6.582544    0.086266    0.160340
     21          1           0        5.367714   -2.075180   -0.006218
     22          1           0        2.893802   -2.101729   -0.121839
     23          1           0        0.447758    2.091397   -0.092812
     24          1           0       -3.499620    0.064301    2.302416
     25          1           0       -2.667658   -1.349627    1.559179
     26          1           0       -4.459415   -1.310086    1.655770
 ---------------------------------------------------------------------

 SCF Done:  E(RHF) =  -1115.46966697     A.U. after   17 cycles
 E2 =    -0.2451485907D+01 EUMP2 =    -0.11179211528808D+04

 The electronic state is 1-A.
 Alpha  occ. eigenvalues --  -92.23487 -20.66136 -20.56444 -20.55743 -15.64247
 Alpha  occ. eigenvalues --  -15.62840 -11.35318 -11.35016 -11.29031 -11.28053
 Alpha  occ. eigenvalues --  -11.27318 -11.26867 -11.26832 -11.26511 -11.26330
 Alpha  occ. eigenvalues --  -11.26074  -9.20253  -6.88777  -6.88767  -6.88618
 Alpha  occ. eigenvalues --   -1.50180  -1.46371  -1.34016  -1.28886  -1.18892
 Alpha  occ. eigenvalues --   -1.15127  -1.10626  -1.04959  -1.04283  -1.03531
 Alpha  occ. eigenvalues --   -0.90175  -0.88483  -0.85595  -0.82396  -0.79445
 Alpha  occ. eigenvalues --   -0.76070  -0.72903  -0.70478  -0.68475  -0.67610
 Alpha  occ. eigenvalues --   -0.66851  -0.65706  -0.65214  -0.63642  -0.61839
 Alpha  occ. eigenvalues --   -0.61406  -0.60697  -0.60144  -0.57542  -0.54847
 Alpha  occ. eigenvalues --   -0.53349  -0.52929  -0.51745  -0.51181  -0.49561
 Alpha  occ. eigenvalues --   -0.48599  -0.46538  -0.46319  -0.41704  -0.39551
 Alpha  occ. eigenvalues --   -0.36044  -0.33042
 Alpha virt. eigenvalues --    0.02192   0.02926   0.03542   0.04265   0.04676
 Alpha virt. eigenvalues --    0.04898   0.05968   0.06135   0.06581   0.07792
 Alpha virt. eigenvalues --    0.08770   0.09084   0.09579   0.10103   0.10257

 Mulliken charges:
               1
     1  O   -1.115896
     2  S    2.672557
     3  N   -0.900661
     4  C   -0.052343
     5  N   -0.210705
     6  O   -1.082507
     7  C    0.222301
     8  C    1.433014
     9  C    0.575022
    10  C    0.035965
    11  C    0.522200
    12  C    0.231786
    13  C    0.369075
    14  C    1.504157
    15  C    0.040207
    16  O   -1.131695
    17  H   -0.064917
    18  H   -0.581110
    19  H   -0.479812
    20  H   -0.431612
    21  H   -0.438419
    22  H   -0.655228
    23  H   -0.551212
    24  H    0.035957
    25  H    0.027814
    26  H    0.026061
 Sum of Mulliken charges =  -0.00000

 Dipole moment (field-independent basis, Debye):
    X=              6.0732    Y=              2.6794    Z=              4.4220  Tot=              7.9760
 Quadrupole moment (field-independent basis, Debye-Ang):
   XX=           -104.3955   YY=            -95.3294   ZZ=           -104.3343
   XY=              2.8580   XZ=            -15.5179   YZ=             -3.1606

 Normal termination of Gaussian 16 at Tue Sep 22 18:49:29 2020.
