 Gaussian 16, Revision B.01,

 ----------------------------------------------------------------------
 #p b3lyp/6-31G(d) opt freq NoSymm scf=(MaxCycle=2000,NoVarAcc,NoIncFoc
 k) scrf=(iefpcm,read,solvent=water)
 ----------------------------------------------------------------------

 -------------------
 SM41_m1.b.5.pdb.xyz
 -------------------
 Symbolic Z-matrix:
 Charge =  1 Multiplicity = 1

 SCF Done:  E(RB3LYP) =  -1120.76715647     A.U. after   14 cycles
 SCF Done:  E(RB3LYP) =  -1120.79109895     A.U. after   12 cycles
 SCF Done:  E(RB3LYP) =  -1120.79600134     A.U. after   11 cycles
 SCF Done:  E(RB3LYP) =  -1120.79752670     A.U. after   11 cycles
 SCF Done:  E(RB3LYP) =  -1120.79794412     A.U. after   11 cycles
 SCF Done:  E(RB3LYP) =  -1120.79828804     A.U. after   10 cycles
 SCF Done:  E(RB3LYP) =  -1120.79671827     A.U. after   13 cycles
 SCF Done:  E(RB3LYP) =  -1120.79894061     A.U. after   11 cycles
 SCF Done:  E(RB3LYP) =  -1120.79899167     A.U. after   10 cycles
 SCF Done:  E(RB3LYP) =  -1120.79906383     A.U. after   10 cycles
 SCF Done:  E(RB3LYP) =  -1120.79915585     A.U. after    8 cycles
 SCF Done:  E(RB3LYP) =  -1120.79916164     A.U. after    8 cycles
 SCF Done:  E(RB3LYP) =  -1120.79916523     A.U. after    8 cycles
 SCF Done:  E(RB3LYP) =  -1120.79916741     A.U. after    7 cycles
 SCF Done:  E(RB3LYP) =  -1120.79916944     A.U. after    7 cycles
 SCF Done:  E(RB3LYP) =  -1120.79916944     A.U. after    7 cycles
 Optimization completed.
    -- Stationary point found.
 Normal termination of Gaussian 16 at Thu Sep 24 04:57:54 2020.

 --------------------------------------------------------------------
 #P Geom=AllCheck Guess=TCheck SCRF=Check GenChk RB3LYP/6-31G(d) Freq
 --------------------------------------------------------------------

 Structure from the checkpoint file:  "SM41_m1.b.5.pdb.xyz.mst.b.w.chk"
 -------------------
 SM41_m1.b.5.pdb.xyz
 -------------------
 Charge =  1 Multiplicity = 1

 SCF Done:  E(RB3LYP) =  -1120.79916944     A.U. after    1 cycles

  Exact polarizability: 322.266  -5.988 181.649   1.519 -28.360  94.904
 Approx polarizability: 329.228 -15.281 231.204   0.102 -38.317 113.062

                      1                      2                      3
                      A                      A                      A
 Frequencies --     43.5054                54.1926                73.8079
 Red. masses --      4.7389                 5.3307                 5.7924
 Frc consts  --      0.0053                 0.0092                 0.0186
 IR Inten    --      3.9882                 4.3433                 1.1507

                      4                      5                      6
                      A                      A                      A
 Frequencies --     83.7752               102.4317               145.7877
 Red. masses --      6.7032                 5.4794                 6.3618
 Frc consts  --      0.0277                 0.0339                 0.0797
 IR Inten    --     13.9964                 3.4216                 4.8442

                      7                      8                      9
                      A                      A                      A
 Frequencies --    197.9437               224.4719               239.7635
 Red. masses --      3.0948                 1.1038                 3.4200
 Frc consts  --      0.0714                 0.0328                 0.1158
 IR Inten    --     33.2336                 1.9812                63.6702

                     10                     11                     12
                      A                      A                      A
 Frequencies --    240.4336               279.7436               294.9514
 Red. masses --      5.1709                 5.1021                 4.5296
 Frc consts  --      0.1761                 0.2352                 0.2322
 IR Inten    --      3.4067                 6.6486                 6.1023

                     13                     14                     15
                      A                      A                      A
 Frequencies --    352.0267               393.4184               404.5572
 Red. masses --      4.3710                 4.6806                 2.0383
 Frc consts  --      0.3191                 0.4268                 0.1966
 IR Inten    --      3.1955                39.1617               191.2988

                     16                     17                     18
                      A                      A                      A
 Frequencies --    409.4034               417.5626               460.4529
 Red. masses --      2.9066                 1.2670                 5.5030
 Frc consts  --      0.2870                 0.1302                 0.6874
 IR Inten    --      2.4708               107.8309                24.0303

                     19                     20                     21
                      A                      A                      A
 Frequencies --    480.1918               491.6093               531.3771
 Red. masses --      5.8274                 3.2181                 6.7103
 Frc consts  --      0.7917                 0.4582                 1.1163
 IR Inten    --     38.3949                46.4651               132.0644

                     22                     23                     24
                      A                      A                      A
 Frequencies --    629.6298               650.5376               694.4110
 Red. masses --      6.4540                 5.8512                 6.3683
 Frc consts  --      1.5075                 1.4590                 1.8093
 IR Inten    --      0.3815                10.2920                30.6956

                     25                     26                     27
                      A                      A                      A
 Frequencies --    701.0823               706.8826               732.6156
 Red. masses --      1.9817                 2.7793                 6.5789
 Frc consts  --      0.5739                 0.8182                 2.0804
 IR Inten    --     32.2479                 7.0643                34.9786

                     28                     29                     30
                      A                      A                      A
 Frequencies --    759.9946               783.9937               820.2207
 Red. masses --      6.9190                 1.6015                 1.7072
 Frc consts  --      2.3546                 0.5799                 0.6767
 IR Inten    --    119.4973                86.3458                30.4659

                     31                     32                     33
                      A                      A                      A
 Frequencies --    832.0139               863.0616               949.5657
 Red. masses --      5.6472                 1.2525                 6.7556
 Frc consts  --      2.3033                 0.5497                 3.5889
 IR Inten    --    358.4702                 0.0638                48.0266

                     34                     35                     36
                      A                      A                      A
 Frequencies --    955.7513               989.4749              1011.6964
 Red. masses --      1.3795                 1.3559                 1.3522
 Frc consts  --      0.7424                 0.7821                 0.8154
 IR Inten    --      2.8092                 0.0867               135.1103

                     37                     38                     39
                      A                      A                      A
 Frequencies --   1017.8386              1020.8328              1025.9171
 Red. masses --      5.8954                 1.2870                 1.3157
 Frc consts  --      3.5985                 0.7902                 0.8159
 IR Inten    --      1.9462                 0.0161                 9.3429

                     40                     41                     42
                      A                      A                      A
 Frequencies --   1039.0708              1058.3402              1072.0640
 Red. masses --      4.9082                 2.9166                 1.9046
 Frc consts  --      3.1222                 1.9248                 1.2897
 IR Inten    --     44.4259                 4.7762                47.7895

                     43                     44                     45
                      A                      A                      A
 Frequencies --   1116.2543              1123.8066              1164.7005
 Red. masses --      1.6085                11.2881                 4.4509
 Frc consts  --      1.1809                 8.3995                 3.5574
 IR Inten    --     21.8933               351.2370                47.5581

                     46                     47                     48
                      A                      A                      A
 Frequencies --   1195.3150              1211.1230              1235.6747
 Red. masses --      1.0923                 1.1366                 1.6511
 Frc consts  --      0.9195                 0.9823                 1.4854
 IR Inten    --      0.2534                35.9310               113.9059

                     49                     50                     51
                      A                      A                      A
 Frequencies --   1286.6770              1317.7796              1352.2385
 Red. masses --      3.4850                 6.7250                 2.4593
 Frc consts  --      3.3994                 6.8806                 2.6495
 IR Inten    --     36.3421               222.2016                33.8793

                     52                     53                     54
                      A                      A                      A
 Frequencies --   1354.9915              1374.2877              1399.8355
 Red. masses --      1.6819                 2.3342                 1.1836
 Frc consts  --      1.8194                 2.5974                 1.3665
 IR Inten    --     14.6862                 7.5670                11.7448

                     55                     56                     57
                      A                      A                      A
 Frequencies --   1411.9487              1471.5609              1477.8932
 Red. masses --      2.1153                 1.0539                 1.0551
 Frc consts  --      2.4846                 1.3446                 1.3577
 IR Inten    --     67.0865                 8.9639                 9.7284

                     58                     59                     60
                      A                      A                      A
 Frequencies --   1497.0414              1521.8148              1543.4802
 Red. masses --      2.2966                 2.4910                 2.4073
 Frc consts  --      3.0325                 3.3990                 3.3789
 IR Inten    --     28.8891               877.2697               254.6750

                     61                     62                     63
                      A                      A                      A
 Frequencies --   1610.5749              1640.4991              1653.4072
 Red. masses --      5.8092                 5.6876                 6.3984
 Frc consts  --      8.8782                 9.0185                10.3058
 IR Inten    --      0.8111               280.0232               924.0205

                     64                     65                     66
                      A                      A                      A
 Frequencies --   1661.9918              3108.7741              3212.0778
 Red. masses --      5.5455                 1.0289                 1.1079
 Frc consts  --      9.0251                 5.8586                 6.7346
 IR Inten    --     39.4087                 1.1625                 2.1129

                     67                     68                     69
                      A                      A                      A
 Frequencies --   3215.5289              3222.8722              3226.4448
 Red. masses --      1.0865                 1.0885                 1.1092
 Frc consts  --      6.6187                 6.6615                 6.8029
 IR Inten    --      1.0748                 2.0281                 0.7994

                     70                     71                     72
                      A                      A                      A
 Frequencies --   3229.0126              3238.4934              3243.2615
 Red. masses --      1.0924                 1.0952                 1.0963
 Frc consts  --      6.7105                 6.7673                 6.7944
 IR Inten    --     28.7330                31.5740                12.6463

                     73                     74                     75
                      A                      A                      A
 Frequencies --   3336.4124              3538.4450              3551.5951
 Red. masses --      1.0994                 1.0791                 1.0866
 Frc consts  --      7.2107                 7.9605                 8.0757
 IR Inten    --     13.2569               484.3444               510.0625

 - Thermochemistry -
 -------------------
 Temperature   298.150 Kelvin.  Pressure   1.00000 Atm.
 Atom     1 has atomic number  8 and mass  15.99491

 Molecular mass:   239.04904 amu.
 Principal axes and moments of inertia in atomic units:
                           1         2         3
     Eigenvalues --   946.148259956.30732**********
           X            0.99969  -0.02424   0.00606
           Y            0.02161   0.96069   0.27677
           Z           -0.01253  -0.27655   0.96092
 This molecule is an asymmetric top.
 Rotational symmetry number  1.
 Warning -- assumption of classical behavior for rotation
           may cause significant error
 Rotational temperatures (Kelvin)      0.09154     0.00870     0.00827
 Rotational constants (GHZ):           1.90746     0.18127     0.17236
 Zero-point vibrational energy     544194.5 (Joules/Mol)
                                  130.06561 (Kcal/Mol)
 Warning -- explicit consideration of  21 degrees of freedom as
           vibrations may cause significant error
 Vibrational temperatures:     62.59    77.97   106.19   120.53   147.38
          (Kelvin)            209.76   284.80   322.96   344.97   345.93
                              402.49   424.37   506.49   566.04   582.07
                              589.04   600.78   662.49   690.89   707.32
                              764.53   905.90   935.98   999.10  1008.70
                             1017.05  1054.07  1093.46  1127.99  1180.11
                             1197.08  1241.75  1366.21  1375.11  1423.63
                             1455.61  1464.44  1468.75  1476.07  1494.99
                             1522.72  1542.46  1606.04  1616.91  1675.74
                             1719.79  1742.54  1777.86  1851.24  1895.99
                             1945.57  1949.53  1977.29  2014.05  2031.48
                             2117.25  2126.36  2153.91  2189.55  2220.72
                             2317.26  2360.31  2378.88  2391.24  4472.83
                             4621.46  4626.43  4636.99  4642.13  4645.83
                             4659.47  4666.33  4800.35  5091.03  5109.95

 Zero-point correction=                           0.207273 (Hartree/Particle)
 Thermal correction to Energy=                    0.221831
 Thermal correction to Enthalpy=                  0.222775
 Thermal correction to Gibbs Free Energy=         0.164956
 Sum of electronic and zero-point Energies=          -1120.591897
 Sum of electronic and thermal Energies=             -1120.577338
 Sum of electronic and thermal Enthalpies=           -1120.576394
 Sum of electronic and thermal Free Energies=        -1120.634213

                     E (Thermal)             CV                S
                      KCal/Mol        Cal/Mol-Kelvin    Cal/Mol-Kelvin
 Total                  139.201             55.493            121.691
 Electronic               0.000              0.000              0.000
 Translational            0.889              2.981             42.316
 Rotational               0.889              2.981             32.956
 Vibrational            137.424             49.531             46.419
 Vibration     1          0.595              1.980              5.093
 Vibration     2          0.596              1.976              4.658
 Vibration     3          0.599              1.966              4.049
 Vibration     4          0.601              1.960              3.800
 Vibration     5          0.604              1.947              3.408
 Vibration     6          0.617              1.907              2.726
 Vibration     7          0.637              1.843              2.152
 Vibration     8          0.649              1.804              1.923
 Vibration     9          0.657              1.780              1.805
 Vibration    10          0.658              1.779              1.800
 Vibration    11          0.680              1.711              1.535
 Vibration    12          0.689              1.683              1.445
 Vibration    13          0.729              1.571              1.157
 Vibration    14          0.761              1.484              0.987
 Vibration    15          0.770              1.460              0.946
 Vibration    16          0.774              1.450              0.929
 Vibration    17          0.781              1.432              0.900
 Vibration    18          0.818              1.338              0.765
 Vibration    19          0.837              1.294              0.710
 Vibration    20          0.847              1.269              0.679
 Vibration    21          0.886              1.181              0.584

                           ! Non-Optimized Parameters !
 Normal termination of Gaussian 16 at Thu Sep 24 05:04:00 2020.

 ----------------------------------------------------------------------
 #p b3lyp/6-31G(d) scrf=(iefpcm,read,solvent=water) geom=allcheck guess
 =read
 ----------------------------------------------------------------------

 Structure from the checkpoint file:  "SM41_m1.b.5.pdb.xyz.mst.b.w.chk"
 -------------------
 SM41_m1.b.5.pdb.xyz
 -------------------
 Charge =  1 Multiplicity = 1

 SCF Done:  E(RB3LYP) =  -1120.79899145     A.U. after    7 cycles
 Normal termination of Gaussian 16 at Thu Sep 24 05:04:30 2020.

 -----------------------------
 #p B3LYP/6-31G* geom=allcheck
 -----------------------------

 Structure from the checkpoint file:  "SM41_m1.b.5.pdb.xyz.mst.b.w.chk"
 -------------------
 SM41_m1.b.5.pdb.xyz
 -------------------
 Charge =  1 Multiplicity = 1

 SCF Done:  E(RB3LYP) =  -1120.70126210     A.U. after   15 cycles
 Normal termination of Gaussian 16 at Thu Sep 24 05:05:00 2020.
 Gaussian 16:  ES64L-G16RevB.01 20-Dec-2017

 ----------------------------------------------------------------------
 #p mp2/aug-cc-pVDZ scf=(MaxCycle=2000,NoVarAcc,NoIncFock) maxdisk=120G
 B geom=allcheck
 ----------------------------------------------------------------------

 Structure from the checkpoint file:  "SM41_m1.b.5.pdb.xyz.mst.b.w.chk"
 -------------------
 SM41_m1.b.5.pdb.xyz
 -------------------
 Charge =  1 Multiplicity = 1

                         Standard orientation:
 ---------------------------------------------------------------------
 Center     Atomic      Atomic             Coordinates (Angstroms)
 Number     Number       Type             X           Y           Z
 ---------------------------------------------------------------------
      1          8           0        3.347952   -1.294103   -0.664817
      2         16           0        3.648222    0.040405   -0.137830
      3          7           0        2.151424    0.868056   -0.120680
      4          6           0        0.915348    0.313491   -0.063413
      5          7           0        0.657547   -0.994063   -0.023029
      6          8           0       -0.696048   -1.212248   -0.006861
      7          6           0       -1.282367    0.013586   -0.007796
      8          6           0       -2.733101    0.043561    0.013963
      9          6           0       -3.399991    1.279648    0.050589
     10          6           0       -4.790038    1.315054    0.057327
     11          6           0       -5.522163    0.124764    0.028015
     12          6           0       -4.860971   -1.105706   -0.006700
     13          6           0       -3.471050   -1.151101   -0.013582
     14          6           0       -0.323437    0.993150   -0.036950
     15          6           0        4.096883   -0.075929    1.591056
     16          8           0        4.569005    0.933864   -0.833054
     17          1           0       -2.833384    2.203757    0.074565
     18          1           0       -5.302420    2.269847    0.085434
     19          1           0       -6.606263    0.156529    0.032173
     20          1           0       -5.428185   -2.029341   -0.030080
     21          1           0       -2.954297   -2.102592   -0.043781
     22          1           0       -0.461158    2.060669   -0.045537
     23          1           0        3.320657   -0.633744    2.113868
     24          1           0        4.198033    0.933657    1.986863
     25          1           0        5.049236   -0.606603    1.631247
     26          1           0        2.206240    1.887447   -0.100174
     27          1           0        1.235230   -1.827280   -0.130541
 ---------------------------------------------------------------------

 SCF Done:  E(RHF) =  -1115.84140340     A.U. after   16 cycles
 E2 =    -0.2429571209D+01 EUMP2 =    -0.11182709746062D+04

 The electronic state is 1-A.
 Alpha  occ. eigenvalues --  -92.38880 -20.85481 -20.71832 -20.71082 -15.86148
 Alpha  occ. eigenvalues --  -15.81013 -11.56877 -11.52798 -11.43071 -11.42007
 Alpha  occ. eigenvalues --  -11.40088 -11.39240 -11.38908 -11.38096 -11.37111
 Alpha  occ. eigenvalues --  -11.37001  -9.35629  -7.04159  -7.04137  -7.03959
 Alpha  occ. eigenvalues --   -1.71358  -1.61868  -1.49656  -1.47215  -1.36893
 Alpha  occ. eigenvalues --   -1.30871  -1.27334  -1.19533  -1.17408  -1.15700
 Alpha  occ. eigenvalues --   -1.06793  -1.05039  -1.02505  -0.96607  -0.95531
 Alpha  occ. eigenvalues --   -0.94289  -0.88459  -0.88098  -0.86638  -0.85365
 Alpha  occ. eigenvalues --   -0.82812  -0.80545  -0.80003  -0.79322  -0.77648
 Alpha  occ. eigenvalues --   -0.75563  -0.75277  -0.74410  -0.72988  -0.72327
 Alpha  occ. eigenvalues --   -0.72047  -0.66185  -0.65608  -0.64818  -0.64384
 Alpha  occ. eigenvalues --   -0.62982  -0.62332  -0.61515  -0.59824  -0.56459
 Alpha  occ. eigenvalues --   -0.47079  -0.46635
 Alpha virt. eigenvalues --   -0.09706  -0.07735  -0.05993  -0.05289  -0.04258
 Alpha virt. eigenvalues --   -0.03658  -0.03359  -0.02537  -0.02258  -0.02192
 Alpha virt. eigenvalues --   -0.01709  -0.00998  -0.00618  -0.00257   0.00265

 Mulliken charges:
               1
     1  O   -1.114008
     2  S    2.663965
     3  N   -0.856611
     4  C    0.140028
     5  N   -0.001549
     6  O   -1.071044
     7  C   -0.159523
     8  C    1.614337
     9  C    0.582828
    10  C    0.096511
    11  C    0.513629
    12  C    0.255171
    13  C    0.330644
    14  C    1.849644
    15  C    0.108261
    16  O   -1.049980
    17  H   -0.567698
    18  H   -0.460628
    19  H   -0.406297
    20  H   -0.422191
    21  H   -0.656192
    22  H   -0.555200
    23  H    0.023735
    24  H    0.050210
    25  H    0.084886
    26  H   -0.047808
    27  H    0.054882
 Sum of Mulliken charges =   1.00000

 Dipole moment (field-independent basis, Debye):
    X=             -2.2486    Y=              1.6731    Z=              4.3636  Tot=              5.1862
 Quadrupole moment (field-independent basis, Debye-Ang):
   XX=            -46.0958   YY=            -82.7968   ZZ=            -99.9043
   XY=             -0.5751   XZ=             19.7711   YZ=              0.0605

 Normal termination of Gaussian 16 at Thu Sep 24 05:24:02 2020.
