 Gaussian 16, Revision B.01,

 ----------------------------------------------------------------------
 #p b3lyp/6-31G(d) opt freq NoSymm scf=(MaxCycle=2000,NoVarAcc,NoIncFoc
 k) scrf=(iefpcm,read,solvent=water)
 ----------------------------------------------------------------------

 -------------------
 SM41_m0.n.6.pdb.xyz
 -------------------
 Symbolic Z-matrix:
 Charge =  0 Multiplicity = 1

 SCF Done:  E(RB3LYP) =  -1120.35961110     A.U. after   13 cycles
 SCF Done:  E(RB3LYP) =  -1120.35963608     A.U. after    9 cycles
 SCF Done:  E(RB3LYP) =  -1120.35962995     A.U. after    8 cycles
 SCF Done:  E(RB3LYP) =  -1120.35963115     A.U. after    7 cycles
 SCF Done:  E(RB3LYP) =  -1120.35963281     A.U. after    7 cycles
 SCF Done:  E(RB3LYP) =  -1120.35963479     A.U. after    8 cycles
 SCF Done:  E(RB3LYP) =  -1120.35963470     A.U. after    7 cycles
 SCF Done:  E(RB3LYP) =  -1120.35963479     A.U. after    7 cycles
 Optimization completed.
    -- Stationary point found.
 Normal termination of Gaussian 16 at Tue Sep 22 18:14:31 2020.

 --------------------------------------------------------------------
 #P Geom=AllCheck Guess=TCheck SCRF=Check GenChk RB3LYP/6-31G(d) Freq
 --------------------------------------------------------------------

 Structure from the checkpoint file:  "SM41_m0.n.6.pdb.xyz.mst.n.w.chk"
 -------------------
 SM41_m0.n.6.pdb.xyz
 -------------------
 Charge =  0 Multiplicity = 1

 SCF Done:  E(RB3LYP) =  -1120.35963479     A.U. after    1 cycles

  Exact polarizability: 294.382 -14.320 197.305  12.582   9.579  92.617
 Approx polarizability: 316.479 -15.036 248.026  18.814  15.182 108.541

                      1                      2                      3
                      A                      A                      A
 Frequencies --     28.7182                38.5983                60.9722
 Red. masses --      4.0662                 5.3827                 6.7259
 Frc consts  --      0.0020                 0.0047                 0.0147
 IR Inten    --      0.7969                 7.1668                 9.1983

                      4                      5                      6
                      A                      A                      A
 Frequencies --     71.3778                98.6381               144.5108
 Red. masses --      5.6669                 4.8529                 6.0637
 Frc consts  --      0.0170                 0.0278                 0.0746
 IR Inten    --      8.7467                 3.7877                 7.6454

                      7                      8                      9
                      A                      A                      A
 Frequencies --    218.2828               236.0475               254.5056
 Red. masses --      4.4084                 1.1532                 4.4796
 Frc consts  --      0.1238                 0.0379                 0.1710
 IR Inten    --      0.4262                 0.9223                 2.9144

                     10                     11                     12
                      A                      A                      A
 Frequencies --    284.6844               304.1413               331.8763
 Red. masses --      5.3157                 5.5239                 4.2052
 Frc consts  --      0.2538                 0.3011                 0.2729
 IR Inten    --      3.8139                 6.0285                 0.8125

                     13                     14                     15
                      A                      A                      A
 Frequencies --    381.6448               388.3394               411.3470
 Red. masses --      5.4161                 7.3943                 2.9512
 Frc consts  --      0.4648                 0.6570                 0.2942
 IR Inten    --     12.0658                10.7422                 0.0240

                     16                     17                     18
                      A                      A                      A
 Frequencies --    458.4659               481.1013               499.4080
 Red. masses --      5.5643                 7.0490                 3.9561
 Frc consts  --      0.6891                 0.9613                 0.5813
 IR Inten    --      2.4738                53.0675                 9.9939

                     19                     20                     21
                      A                      A                      A
 Frequencies --    506.8562               550.9836               630.2832
 Red. masses --      2.7094                 2.7361                 6.4364
 Frc consts  --      0.4101                 0.4894                 1.5065
 IR Inten    --    120.0495               209.3729                 0.1263

                     22                     23                     24
                      A                      A                      A
 Frequencies --    665.0818               685.8502               703.9797
 Red. masses --      7.7274                 6.1163                 1.7426
 Frc consts  --      2.0139                 1.6951                 0.5088
 IR Inten    --      2.1752                20.5811                44.3753

                     25                     26                     27
                      A                      A                      A
 Frequencies --    710.3022               740.0241               778.7441
 Red. masses --      4.1087                 5.8320                 4.0322
 Frc consts  --      1.2214                 1.8817                 1.4407
 IR Inten    --     24.9041               120.5942                12.6647

                     28                     29                     30
                      A                      A                      A
 Frequencies --    786.2672               821.2123               862.9996
 Red. masses --      1.6376                 1.6168                 1.2606
 Frc consts  --      0.5965                 0.6424                 0.5532
 IR Inten    --     68.6934                25.5369                 0.6156

                     31                     32                     33
                      A                      A                      A
 Frequencies --    865.0957               943.7382               958.8683
 Red. masses --      4.2044                 1.3931                 9.8957
 Frc consts  --      1.8539                 0.7310                 5.3606
 IR Inten    --    119.3225                 2.8561                12.1693

                     34                     35                     36
                      A                      A                      A
 Frequencies --    965.7532               984.5946              1014.3333
 Red. masses --     10.0689                 1.3528                 1.2753
 Frc consts  --      5.5330                 0.7727                 0.7731
 IR Inten    --     64.1077                 0.0390                 3.0100

                     37                     38                     39
                      A                      A                      A
 Frequencies --   1014.5835              1016.4873              1019.5627
 Red. masses --      1.3970                 5.6969                 1.3490
 Frc consts  --      0.8473                 3.4681                 0.8262
 IR Inten    --     85.9248                 0.8343                 8.0151

                     40                     41                     42
                      A                      A                      A
 Frequencies --   1039.9461              1053.7306              1078.9008
 Red. masses --      2.5473                 2.9143                 2.4371
 Frc consts  --      1.6231                 1.9065                 1.6714
 IR Inten    --     19.9115                37.5698                 6.4452

                     43                     44                     45
                      A                      A                      A
 Frequencies --   1108.5118              1124.2234              1188.3921
 Red. masses --      1.5683                11.2444                 1.1163
 Frc consts  --      1.1355                 8.3732                 0.9288
 IR Inten    --     17.8997               393.8660                 0.5128

                     46                     47                     48
                      A                      A                      A
 Frequencies --   1201.1049              1219.1484              1291.8357
 Red. masses --      1.2226                 1.9286                 4.7813
 Frc consts  --      1.0392                 1.6889                 4.7012
 IR Inten    --      5.5200                 5.8987                55.5995

                     49                     50                     51
                      A                      A                      A
 Frequencies --   1302.7340              1353.7716              1367.6994
 Red. masses --      6.7718                 3.2226                 2.0297
 Frc consts  --      6.7712                 3.4798                 2.2370
 IR Inten    --    224.1585                31.6892                 3.7229

                     52                     53                     54
                      A                      A                      A
 Frequencies --   1389.4328              1397.3274              1479.8535
 Red. masses --      1.7466                 1.1918                 1.1086
 Frc consts  --      1.9866                 1.3711                 1.4304
 IR Inten    --    259.6879                19.7612                13.2027

                     55                     56                     57
                      A                      A                      A
 Frequencies --   1483.4434              1485.3629              1504.1429
 Red. masses --      1.6063                 1.4769                 3.3650
 Frc consts  --      2.0827                 1.9198                 4.4856
 IR Inten    --    110.5407                73.5281               292.2351

                     58                     59                     60
                      A                      A                      A
 Frequencies --   1518.9988              1553.8176              1627.5518
 Red. masses --      2.7332                 3.2339                 5.5478
 Frc consts  --      3.7156                 4.6003                 8.6585
 IR Inten    --     36.9095                69.7870               144.3170

                     61                     62                     63
                      A                      A                      A
 Frequencies --   1651.2454              1664.8734              3108.7723
 Red. masses --      6.5198                 6.0057                 1.0292
 Frc consts  --     10.4739                 9.8080                 5.8606
 IR Inten    --    115.9585                60.2215                 0.0717

                     64                     65                     66
                      A                      A                      A
 Frequencies --   3207.3693              3210.5656              3214.1867
 Red. masses --      1.0861                 1.1074                 1.0884
 Frc consts  --      6.5830                 6.7252                 6.6252
 IR Inten    --      2.7006                 0.6591                 5.7137

                     67                     68                     69
                      A                      A                      A
 Frequencies --   3221.7284              3222.1213              3230.1880
 Red. masses --      1.1089                 1.0929                 1.0959
 Frc consts  --      6.7812                 6.6852                 6.7373
 IR Inten    --      0.0061                37.8098                39.5776

                     70                     71                     72
                      A                      A                      A
 Frequencies --   3239.8794              3339.4529              3515.3753
 Red. masses --      1.0945                 1.0986                 1.0762
 Frc consts  --      6.7691                 7.2181                 7.8358
 IR Inten    --     12.7449                 9.2975               190.0181

 - Thermochemistry -
 -------------------
 Temperature   298.150 Kelvin.  Pressure   1.00000 Atm.
 Atom     1 has atomic number  8 and mass  15.99491

 Molecular mass:   238.04121 amu.
 Principal axes and moments of inertia in atomic units:
                           1         2         3
     Eigenvalues --  1314.974168660.575959486.91469
           X            0.99996  -0.00563  -0.00738
           Y            0.00561   0.99998  -0.00348
           Z            0.00740   0.00344   0.99997
 This molecule is an asymmetric top.
 Rotational symmetry number  1.
 Warning -- assumption of classical behavior for rotation
           may cause significant error
 Rotational temperatures (Kelvin)      0.06587     0.01000     0.00913
 Rotational constants (GHZ):           1.37245     0.20839     0.19023
 Zero-point vibrational energy     511487.0 (Joules/Mol)
                                  122.24833 (Kcal/Mol)
 Warning -- explicit consideration of  20 degrees of freedom as
           vibrations may cause significant error
 Vibrational temperatures:     41.32    55.53    87.73   102.70   141.92
          (Kelvin)            207.92   314.06   339.62   366.18   409.60
                              437.59   477.50   549.10   558.73   591.84
                              659.63   692.20   718.54   729.25   792.74
                              906.84   956.90   986.79  1012.87  1021.97
                             1064.73  1120.44  1131.26  1181.54  1241.66
                             1244.68  1357.83  1379.60  1389.50  1416.61
                             1459.40  1459.76  1462.50  1466.92  1496.25
                             1516.08  1552.30  1594.90  1617.51  1709.83
                             1728.12  1754.08  1858.66  1874.34  1947.78
                             1967.81  1999.08  2010.44  2129.18  2134.34
                             2137.11  2164.13  2185.50  2235.60  2341.68
                             2375.77  2395.38  4472.83  4614.69  4619.29
                             4624.50  4635.35  4635.91  4647.52  4661.46
                             4804.73  5057.84

 Zero-point correction=                           0.194815 (Hartree/Particle)
 Thermal correction to Energy=                    0.208867
 Thermal correction to Enthalpy=                  0.209811
 Thermal correction to Gibbs Free Energy=         0.152009
 Sum of electronic and zero-point Energies=          -1120.164820
 Sum of electronic and thermal Energies=             -1120.150768
 Sum of electronic and thermal Enthalpies=           -1120.149824
 Sum of electronic and thermal Free Energies=        -1120.207626

                     E (Thermal)             CV                S
                      KCal/Mol        Cal/Mol-Kelvin    Cal/Mol-Kelvin
 Total                  131.066             53.505            121.656
 Electronic               0.000              0.000              0.000
 Translational            0.889              2.981             42.303
 Rotational               0.889              2.981             33.046
 Vibrational            129.289             47.544             46.306
 Vibration     1          0.593              1.984              5.916
 Vibration     2          0.594              1.981              5.330
 Vibration     3          0.597              1.973              4.425
 Vibration     4          0.598              1.968              4.115
 Vibration     5          0.604              1.950              3.481
 Vibration     6          0.616              1.909              2.743
 Vibration     7          0.646              1.813              1.973
 Vibration     8          0.655              1.786              1.832
 Vibration     9          0.665              1.755              1.699
 Vibration    10          0.683              1.702              1.505
 Vibration    11          0.695              1.666              1.394
 Vibration    12          0.714              1.612              1.251
 Vibration    13          0.751              1.509              1.033
 Vibration    14          0.757              1.495              1.007
 Vibration    15          0.775              1.446              0.922
 Vibration    16          0.816              1.342              0.771
 Vibration    17          0.837              1.292              0.707
 Vibration    18          0.855              1.251              0.660
 Vibration    19          0.862              1.235              0.641
 Vibration    20          0.906              1.138              0.542

                           ! Non-Optimized Parameters !
 Normal termination of Gaussian 16 at Tue Sep 22 18:20:00 2020.

 ----------------------------------------------------------------------
 #p b3lyp/6-31G(d) scrf=(iefpcm,read,solvent=water) geom=allcheck guess
 =read
 ----------------------------------------------------------------------

 Structure from the checkpoint file:  "SM41_m0.n.6.pdb.xyz.mst.n.w.chk"
 -------------------
 SM41_m0.n.6.pdb.xyz
 -------------------
 Charge =  0 Multiplicity = 1

 SCF Done:  E(RB3LYP) =  -1120.35963472     A.U. after    3 cycles
 Normal termination of Gaussian 16 at Tue Sep 22 18:20:16 2020.

 -----------------------------
 #p B3LYP/6-31G* geom=allcheck
 -----------------------------

 Structure from the checkpoint file:  "SM41_m0.n.6.pdb.xyz.mst.n.w.chk"
 -------------------
 SM41_m0.n.6.pdb.xyz
 -------------------
 Charge =  0 Multiplicity = 1

 SCF Done:  E(RB3LYP) =  -1120.33782335     A.U. after   15 cycles
 Normal termination of Gaussian 16 at Tue Sep 22 18:20:43 2020.
 Gaussian 16:  ES64L-G16RevB.01 20-Dec-2017

 ----------------------------------------------------------------------
 #p mp2/aug-cc-pVDZ scf=(MaxCycle=2000,NoVarAcc,NoIncFock) maxdisk=120G
 B geom=allcheck
 ----------------------------------------------------------------------

 Structure from the checkpoint file:  "SM41_m0.n.6.pdb.xyz.mst.n.w.chk"
 -------------------
 SM41_m0.n.6.pdb.xyz
 -------------------
 Charge =  0 Multiplicity = 1

                         Standard orientation:
 ---------------------------------------------------------------------
 Center     Atomic      Atomic             Coordinates (Angstroms)
 Number     Number       Type             X           Y           Z
 ---------------------------------------------------------------------
      1          8           0       -4.693960   -0.184489   -0.544075
      2         16           0       -3.349580   -0.471477   -0.035689
      3          7           0       -2.409112    0.833875   -0.556667
      4          6           0       -1.033395    0.909249   -0.318259
      5          7           0       -0.491751    2.089764   -0.077734
      6          8           0        0.883853    1.833814    0.026554
      7          6           0        1.114012    0.507584   -0.133714
      8          6           0        2.496197    0.049059   -0.044271
      9          6           0        3.539807    0.963254    0.176648
     10          6           0        4.855759    0.514855    0.260794
     11          6           0        5.145285   -0.844872    0.126410
     12          6           0        4.110854   -1.758389   -0.093172
     13          6           0        2.793329   -1.317413   -0.178372
     14          6           0       -0.071465   -0.133899   -0.363687
     15          6           0       -3.375381   -0.408565    1.756614
     16          8           0       -2.652180   -1.692501   -0.452166
     17          1           0       -2.903475    1.722178   -0.463446
     18          1           0        3.312136    2.017403    0.280024
     19          1           0        5.655489    1.227501    0.431129
     20          1           0        6.170937   -1.191319    0.192757
     21          1           0        4.330775   -2.815322   -0.197709
     22          1           0        1.993691   -2.030159   -0.347554
     23          1           0       -0.254989   -1.178147   -0.543975
     24          1           0       -3.828839    0.533164    2.063675
     25          1           0       -2.353500   -0.492456    2.124355
     26          1           0       -3.974618   -1.254444    2.096121
 ---------------------------------------------------------------------

 SCF Done:  E(RHF) =  -1115.47570322     A.U. after   16 cycles
 E2 =    -0.2451850339D+01 EUMP2 =    -0.11179275535560D+04

 The electronic state is 1-A.
 Alpha  occ. eigenvalues --  -92.24544 -20.65983 -20.57438 -20.57308 -15.64473
 Alpha  occ. eigenvalues --  -15.63160 -11.34949 -11.34383 -11.30469 -11.27647
 Alpha  occ. eigenvalues --  -11.26803 -11.26472 -11.26459 -11.26075 -11.25972
 Alpha  occ. eigenvalues --  -11.25130  -9.21317  -6.89852  -6.89819  -6.89688
 Alpha  occ. eigenvalues --   -1.50072  -1.47572  -1.35441  -1.28959  -1.18489
 Alpha  occ. eigenvalues --   -1.15057  -1.10112  -1.05868  -1.03866  -1.03192
 Alpha  occ. eigenvalues --   -0.89559  -0.88438  -0.85237  -0.81898  -0.80847
 Alpha  occ. eigenvalues --   -0.75327  -0.73472  -0.69933  -0.69538  -0.67598
 Alpha  occ. eigenvalues --   -0.66843  -0.66054  -0.65069  -0.63457  -0.62511
 Alpha  occ. eigenvalues --   -0.61406  -0.61158  -0.60154  -0.57446  -0.54744
 Alpha  occ. eigenvalues --   -0.52769  -0.52603  -0.51434  -0.51315  -0.50821
 Alpha  occ. eigenvalues --   -0.49081  -0.48319  -0.47799  -0.41254  -0.39713
 Alpha  occ. eigenvalues --   -0.35640  -0.32546
 Alpha virt. eigenvalues --    0.02791   0.03126   0.03844   0.04619   0.04823
 Alpha virt. eigenvalues --    0.05341   0.05635   0.06200   0.06421   0.07314
 Alpha virt. eigenvalues --    0.08911   0.09372   0.09699   0.10048   0.11122

 Mulliken charges:
               1
     1  O   -1.124583
     2  S    2.713059
     3  N   -0.888095
     4  C   -0.006106
     5  N   -0.302315
     6  O   -1.086322
     7  C    0.165387
     8  C    1.464530
     9  C    0.329025
    10  C    0.257944
    11  C    0.513160
    12  C    0.082288
    13  C    0.541408
    14  C    1.648514
    15  C    0.056091
    16  O   -1.181218
    17  H   -0.072540
    18  H   -0.663278
    19  H   -0.440176
    20  H   -0.434081
    21  H   -0.485024
    22  H   -0.571571
    23  H   -0.601101
    24  H    0.025851
    25  H    0.017073
    26  H    0.042082
 Sum of Mulliken charges =  -0.00000

 Dipole moment (field-independent basis, Debye):
    X=              3.2298    Y=             -0.6778    Z=              3.8319  Tot=              5.0572
 Quadrupole moment (field-independent basis, Debye-Ang):
   XX=            -96.3940   YY=           -103.9896   ZZ=           -101.2427
   XY=             -8.5386   XZ=            -14.2047   YZ=             -2.0009

 Normal termination of Gaussian 16 at Tue Sep 22 18:45:01 2020.
