 Gaussian 16, Revision B.01,

 ----------------------------------------------------------------------
 #p b3lyp/6-31G(d) opt freq NoSymm scf=(MaxCycle=2000,NoVarAcc,NoIncFoc
 k) scrf=(iefpcm,read,solvent=water)
 ----------------------------------------------------------------------

 -------------------
 SM41_m1.a.9.pdb.xyz
 -------------------
 Symbolic Z-matrix:
 Charge = -1 Multiplicity = 1

 SCF Done:  E(RB3LYP) =  -1119.88976255     A.U. after   13 cycles
 SCF Done:  E(RB3LYP) =  -1119.88966249     A.U. after   10 cycles
 SCF Done:  E(RB3LYP) =  -1119.88959510     A.U. after   10 cycles
 SCF Done:  E(RB3LYP) =  -1119.88976093     A.U. after   10 cycles
 SCF Done:  E(RB3LYP) =  -1119.88976375     A.U. after    8 cycles
 SCF Done:  E(RB3LYP) =  -1119.88960475     A.U. after   10 cycles
 SCF Done:  E(RB3LYP) =  -1119.88959417     A.U. after    8 cycles
 SCF Done:  E(RB3LYP) =  -1119.88976150     A.U. after   11 cycles
 SCF Done:  E(RB3LYP) =  -1119.88976367     A.U. after    8 cycles
 SCF Done:  E(RB3LYP) =  -1119.88960345     A.U. after   10 cycles
 SCF Done:  E(RB3LYP) =  -1119.88972797     A.U. after    4 cycles
 SCF Done:  E(RB3LYP) =  -1119.88972793     A.U. after    3 cycles
 SCF Done:  E(RB3LYP) =  -1119.88972792     A.U. after    2 cycles
 SCF Done:  E(RB3LYP) =  -1119.88959138     A.U. after   10 cycles
 SCF Done:  E(RB3LYP) =  -1119.88961181     A.U. after    8 cycles
 SCF Done:  E(RB3LYP) =  -1119.88959969     A.U. after    8 cycles
 Optimization completed.
    -- Stationary point found.
 Normal termination of Gaussian 16 at Thu Sep 24 05:03:57 2020.

 --------------------------------------------------------------------
 #P Geom=AllCheck Guess=TCheck SCRF=Check GenChk RB3LYP/6-31G(d) Freq
 --------------------------------------------------------------------

 Structure from the checkpoint file:  "SM41_m1.a.9.pdb.xyz.mst.a.w.chk"
 -------------------
 SM41_m1.a.9.pdb.xyz
 -------------------
 Charge = -1 Multiplicity = 1

 SCF Done:  E(RB3LYP) =  -1119.88959969     A.U. after    1 cycles

  Exact polarizability: 319.852  -8.811 195.340  -1.037  -3.146  90.640
 Approx polarizability: 328.662 -15.566 252.189   1.309  -0.060 107.283

                      1                      2                      3
                      A                      A                      A
 Frequencies --     37.4465                38.9082                71.7798
 Red. masses --      5.6752                 4.8506                 5.8767
 Frc consts  --      0.0047                 0.0043                 0.0178
 IR Inten    --      4.1659                 1.3829                 0.5738

                      4                      5                      6
                      A                      A                      A
 Frequencies --     91.9343               107.6539               142.3580
 Red. masses --      5.8721                 5.5308                 6.3595
 Frc consts  --      0.0292                 0.0378                 0.0759
 IR Inten    --      9.3227                 4.7841                 0.4765

                      7                      8                      9
                      A                      A                      A
 Frequencies --    220.7432               246.4198               252.0355
 Red. masses --      4.7541                 1.3940                 2.9237
 Frc consts  --      0.1365                 0.0499                 0.1094
 IR Inten    --      2.0808                 2.7925                 8.1379

                     10                     11                     12
                      A                      A                      A
 Frequencies --    286.7850               312.2856               348.2422
 Red. masses --      4.5108                 4.8488                 5.5417
 Frc consts  --      0.2186                 0.2786                 0.3960
 IR Inten    --      5.6341                 4.2771                 6.0125

                     13                     14                     15
                      A                      A                      A
 Frequencies --    390.0549               412.1335               415.1396
 Red. masses --      7.6050                 3.0458                 8.2863
 Frc consts  --      0.6817                 0.3048                 0.8414
 IR Inten    --      2.1455                 0.0830                 6.0701

                     16                     17                     18
                      A                      A                      A
 Frequencies --    462.8998               493.3033               497.9512
 Red. masses --      6.4092                 5.9786                 5.0627
 Frc consts  --      0.8092                 0.8572                 0.7396
 IR Inten    --     36.3044                69.4915                14.8105

                     19                     20                     21
                      A                      A                      A
 Frequencies --    540.6651               631.3828               657.2937
 Red. masses --      6.2502                 6.4467                 7.2570
 Frc consts  --      1.0765                 1.5142                 1.8473
 IR Inten    --     72.3587                 0.0115                 1.2358

                     22                     23                     24
                      A                      A                      A
 Frequencies --    685.5477               703.9737               707.4300
 Red. masses --      6.6774                 5.3779                 1.9553
 Frc consts  --      1.8490                 1.5703                 0.5765
 IR Inten    --      4.2768                21.1843                47.0774

                     25                     26                     27
                      A                      A                      A
 Frequencies --    718.7413               763.7857               779.7260
 Red. masses --      3.7874                 9.3505                 1.5150
 Frc consts  --      1.1528                 3.2139                 0.5427
 IR Inten    --     19.1949               206.0831                91.3355

                     28                     29                     30
                      A                      A                      A
 Frequencies --    805.2590               866.7024               887.9040
 Red. masses --      1.8726                 1.2511                 9.1939
 Frc consts  --      0.7154                 0.5537                 4.2705
 IR Inten    --     14.4738                 0.0732               152.6052

                     31                     32                     33
                      A                      A                      A
 Frequencies --    924.5032               942.6687               957.0722
 Red. masses --     10.3086                 1.3887                 7.9120
 Frc consts  --      5.1912                 0.7271                 4.2700
 IR Inten    --     77.0482                 3.6592                21.1227

                     34                     35                     36
                      A                      A                      A
 Frequencies --    983.4782               994.2579              1002.7118
 Red. masses --      1.3470                 1.4707                 1.4545
 Frc consts  --      0.7676                 0.8566                 0.8616
 IR Inten    --      0.0041                63.3183                23.9152

                     37                     38                     39
                      A                      A                      A
 Frequencies --   1010.8555              1016.5870              1029.8087
 Red. masses --      1.2605                 6.0484                 2.1829
 Frc consts  --      0.7589                 3.6828                 1.3640
 IR Inten    --      0.1491                 0.1782                15.4972

                     40                     41                     42
                      A                      A                      A
 Frequencies --   1053.8323              1084.4080              1097.4812
 Red. masses --      2.3845                 4.1429                 6.2144
 Frc consts  --      1.5602                 2.8704                 4.4101
 IR Inten    --     10.9761               315.4434               483.8580

                     43                     44                     45
                      A                      A                      A
 Frequencies --   1104.0669              1184.4424              1198.4479
 Red. masses --      1.5398                 1.1354                 1.1760
 Frc consts  --      1.1059                 0.9385                 0.9952
 IR Inten    --      9.5519                 6.8280                19.9314

                     46                     47                     48
                      A                      A                      A
 Frequencies --   1215.1825              1228.2128              1295.7385
 Red. masses --     13.4945                 2.2455                 4.6793
 Frc consts  --     11.7406                 1.9958                 4.6288
 IR Inten    --    460.9143                97.6793                 5.5934

                     49                     50                     51
                      A                      A                      A
 Frequencies --   1347.7637              1365.5012              1373.4342
 Red. masses --      2.5287                 2.5573                 1.2186
 Frc consts  --      2.7063                 2.8094                 1.3543
 IR Inten    --     30.1764                 1.4540                25.6708

                     52                     53                     54
                      A                      A                      A
 Frequencies --   1433.9272              1479.4382              1484.8389
 Red. masses --      6.9083                 1.1874                 2.8886
 Frc consts  --      8.3690                 1.5312                 3.7523
 IR Inten    --    223.5646               106.0704               400.9038

                     55                     56                     57
                      A                      A                      A
 Frequencies --   1496.3971              1500.2586              1539.6919
 Red. masses --      1.3211                 1.9294                 2.4119
 Frc consts  --      1.7429                 2.5586                 3.3688
 IR Inten    --     12.6682               286.9476               165.8556

                     58                     59                     60
                      A                      A                      A
 Frequencies --   1626.5082              1652.0102              1666.9977
 Red. masses --      5.8607                 6.8103                 6.2737
 Frc consts  --      9.1350                10.9507                10.2718
 IR Inten    --    117.3663                96.0647                29.5257

                     61                     62                     63
                      A                      A                      A
 Frequencies --   3098.1630              3198.0673              3204.3379
 Red. masses --      1.0296                 1.1071                 1.0857
 Frc consts  --      5.8229                 6.6715                 6.5683
 IR Inten    --      7.9619                 6.1967                 1.6982

                     64                     65                     66
                      A                      A                      A
 Frequencies --   3206.2839              3211.8475              3219.1856
 Red. masses --      1.1072                 1.0882                 1.0920
 Frc consts  --      6.7061                 6.6142                 6.6675
 IR Inten    --      1.0457                 5.1960                38.7661

                     67                     68                     69
                      A                      A                      A
 Frequencies --   3226.2220              3234.3843              3303.9981
 Red. masses --      1.0951                 1.0960                 1.0981
 Frc consts  --      6.7160                 6.7553                 7.0629
 IR Inten    --     44.5365                19.9251                 0.9896

 - Thermochemistry -
 -------------------
 Temperature   298.150 Kelvin.  Pressure   1.00000 Atm.
 Atom     1 has atomic number  8 and mass  15.99491

 Molecular mass:   237.03339 amu.
 Principal axes and moments of inertia in atomic units:
                           1         2         3
     Eigenvalues --   927.104729728.94607**********
           X            0.99995   0.00840  -0.00456
           Y           -0.00816   0.99865   0.05128
           Z            0.00499  -0.05124   0.99867
 This molecule is an asymmetric top.
 Rotational symmetry number  1.
 Warning -- assumption of classical behavior for rotation
           may cause significant error
 Rotational temperatures (Kelvin)      0.09342     0.00890     0.00845
 Rotational constants (GHZ):           1.94664     0.18550     0.17613
 Zero-point vibrational energy     477127.6 (Joules/Mol)
                                  114.03622 (Kcal/Mol)
 Warning -- explicit consideration of  19 degrees of freedom as
           vibrations may cause significant error
 Vibrational temperatures:     53.88    55.98   103.28   132.27   154.89
          (Kelvin)            204.82   317.60   354.54   362.62   412.62
                              449.31   501.04   561.20   592.97   597.29
                              666.01   709.75   716.44   777.90   908.42
                              945.70   986.35  1012.86  1017.83  1034.11
                             1098.92  1121.85  1158.59  1246.99  1277.50
                             1330.15  1356.29  1377.01  1415.01  1430.52
                             1442.68  1454.40  1462.64  1481.67  1516.23
                             1560.22  1579.03  1588.51  1704.15  1724.30
                             1748.38  1767.12  1864.28  1939.13  1964.65
                             1976.07  2063.10  2128.58  2136.35  2152.98
                             2158.54  2215.27  2340.18  2376.87  2398.44
                             4457.57  4601.31  4610.33  4613.13  4621.13
                             4631.69  4641.81  4653.56  4753.72

 Zero-point correction=                           0.181728 (Hartree/Particle)
 Thermal correction to Energy=                    0.195413
 Thermal correction to Enthalpy=                  0.196357
 Thermal correction to Gibbs Free Energy=         0.139781
 Sum of electronic and zero-point Energies=          -1119.707871
 Sum of electronic and thermal Energies=             -1119.694187
 Sum of electronic and thermal Enthalpies=           -1119.693243
 Sum of electronic and thermal Free Energies=        -1119.749819

                     E (Thermal)             CV                S
                      KCal/Mol        Cal/Mol-Kelvin    Cal/Mol-Kelvin
 Total                  122.623             52.275            119.075
 Electronic               0.000              0.000              0.000
 Translational            0.889              2.981             42.291
 Rotational               0.889              2.981             32.891
 Vibrational            120.846             46.313             43.894
 Vibration     1          0.594              1.982              5.390
 Vibration     2          0.594              1.981              5.314
 Vibration     3          0.598              1.967              4.104
 Vibration     4          0.602              1.955              3.618
 Vibration     5          0.606              1.943              3.311
 Vibration     6          0.616              1.911              2.772
 Vibration     7          0.647              1.809              1.953
 Vibration     8          0.661              1.769              1.756
 Vibration     9          0.664              1.759              1.716
 Vibration    10          0.684              1.698              1.493
 Vibration    11          0.701              1.650              1.350
 Vibration    12          0.726              1.579              1.174
 Vibration    13          0.758              1.491              1.000
 Vibration    14          0.776              1.444              0.919
 Vibration    15          0.779              1.437              0.909
 Vibration    16          0.821              1.332              0.758
 Vibration    17          0.849              1.265              0.675
 Vibration    18          0.853              1.255              0.663
 Vibration    19          0.896              1.160              0.564

 Optimization completed.
    -- Stationary point found.
 Normal termination of Gaussian 16 at Thu Sep 24 05:09:14 2020.

 ----------------------------------------------------------------------
 #p b3lyp/6-31G(d) scrf=(iefpcm,read,solvent=water) geom=allcheck guess
 =read
 ----------------------------------------------------------------------

 Structure from the checkpoint file:  "SM41_m1.a.9.pdb.xyz.mst.a.w.chk"
 -------------------
 SM41_m1.a.9.pdb.xyz
 -------------------
 Charge = -1 Multiplicity = 1

 SCF Done:  E(RB3LYP) =  -1119.88956444     A.U. after    7 cycles
 Normal termination of Gaussian 16 at Thu Sep 24 05:09:40 2020.

 -----------------------------
 #p B3LYP/6-31G* geom=allcheck
 -----------------------------

 Structure from the checkpoint file:  "SM41_m1.a.9.pdb.xyz.mst.a.w.chk"
 -------------------
 SM41_m1.a.9.pdb.xyz
 -------------------
 Charge = -1 Multiplicity = 1

 SCF Done:  E(RB3LYP) =  -1119.78923620     A.U. after   15 cycles
 Normal termination of Gaussian 16 at Thu Sep 24 05:10:08 2020.
 Gaussian 16:  ES64L-G16RevB.01 20-Dec-2017

 ----------------------------------------------------------------------
 #p mp2/aug-cc-pVDZ scf=(MaxCycle=2000,NoVarAcc,NoIncFock) maxdisk=120G
 B geom=allcheck
 ----------------------------------------------------------------------

 Structure from the checkpoint file:  "SM41_m1.a.9.pdb.xyz.mst.a.w.chk"
 -------------------
 SM41_m1.a.9.pdb.xyz
 -------------------
 Charge = -1 Multiplicity = 1

                         Standard orientation:
 ---------------------------------------------------------------------
 Center     Atomic      Atomic             Coordinates (Angstroms)
 Number     Number       Type             X           Y           Z
 ---------------------------------------------------------------------
      1          8           0       -4.666409    1.139166   -0.002287
      2         16           0       -3.564862    0.149500   -0.113772
      3          7           0       -2.191834    0.990090   -0.005552
      4          6           0       -0.993293    0.327814   -0.028233
      5          7           0       -0.811771   -0.995008   -0.065134
      6          8           0        0.598736   -1.185466   -0.051814
      7          6           0        1.209122    0.024126   -0.009880
      8          6           0        2.669745    0.038722    0.002201
      9          6           0        3.401830   -1.156843   -0.072522
     10          6           0        4.794898   -1.128764   -0.063361
     11          6           0        5.474288    0.088479    0.020436
     12          6           0        4.750859    1.282188    0.095799
     13          6           0        3.359342    1.259114    0.087024
     14          6           0        0.271080    1.010641    0.007741
     15          6           0       -3.676042   -0.923059    1.331879
     16          8           0       -3.644204   -0.747951   -1.300413
     17          1           0        2.874229   -2.101411   -0.139010
     18          1           0        5.350336   -2.058772   -0.122587
     19          1           0        6.558989    0.107832    0.027117
     20          1           0        5.271591    2.231703    0.161992
     21          1           0        2.801390    2.187184    0.147294
     22          1           0        0.423715    2.077521    0.037655
     23          1           0       -3.694524   -0.301290    2.227274
     24          1           0       -2.803359   -1.575921    1.332635
     25          1           0       -4.595303   -1.504928    1.252380
 ---------------------------------------------------------------------

 SCF Done:  E(RHF) =  -1114.93019188     A.U. after   18 cycles
 E2 =    -0.2462962924D+01 EUMP2 =    -0.11173931548008D+04

 The electronic state is 1-A.
 Alpha  occ. eigenvalues --  -92.03788 -20.50554 -20.37190 -20.37115 -15.45992
 Alpha  occ. eigenvalues --  -15.38801 -11.20387 -11.18067 -11.17786 -11.17474
 Alpha  occ. eigenvalues --  -11.17347 -11.17224 -11.17108 -11.16709 -11.12159
 Alpha  occ. eigenvalues --  -11.11599  -9.00572  -6.69109  -6.69048  -6.68994
 Alpha  occ. eigenvalues --   -1.33996  -1.26440  -1.14047  -1.08858  -1.07561
 Alpha  occ. eigenvalues --   -0.98668  -0.95928  -0.94489  -0.91257  -0.86654
 Alpha  occ. eigenvalues --   -0.77431  -0.75895  -0.70784  -0.67906  -0.64185
 Alpha  occ. eigenvalues --   -0.60467  -0.57623  -0.55097  -0.54826  -0.52062
 Alpha  occ. eigenvalues --   -0.51769  -0.50861  -0.49741  -0.48895  -0.46987
 Alpha  occ. eigenvalues --   -0.45117  -0.44053  -0.43563  -0.43177  -0.42505
 Alpha  occ. eigenvalues --   -0.41459  -0.35701  -0.33541  -0.32646  -0.31197
 Alpha  occ. eigenvalues --   -0.29906  -0.29511  -0.27783  -0.26687  -0.24949
 Alpha  occ. eigenvalues --   -0.20875  -0.18654
 Alpha virt. eigenvalues --    0.08688   0.09744   0.10792   0.12749   0.13125
 Alpha virt. eigenvalues --    0.13783   0.14988   0.15592   0.16136   0.16635
 Alpha virt. eigenvalues --    0.17666   0.17882   0.17997   0.19400   0.19875

 Mulliken charges:
               1
     1  O   -1.222558
     2  S    2.747903
     3  N   -1.373548
     4  C   -0.103834
     5  N   -0.288713
     6  O   -1.086645
     7  C    0.228589
     8  C    1.356412
     9  C    0.438795
    10  C    0.219833
    11  C    0.520393
    12  C   -0.001702
    13  C    0.548610
    14  C    1.532518
    15  C    0.022748
    16  O   -1.254632
    17  H   -0.649352
    18  H   -0.455416
    19  H   -0.453258
    20  H   -0.494628
    21  H   -0.578824
    22  H   -0.585684
    23  H   -0.006232
    24  H   -0.010863
    25  H   -0.049910
 Sum of Mulliken charges =  -1.00000

 Dipole moment (field-independent basis, Debye):
    X=             14.0095    Y=             -0.5282    Z=              3.6399  Tot=             14.4842
 Quadrupole moment (field-independent basis, Debye-Ang):
   XX=           -161.3244   YY=           -108.6061   ZZ=           -111.3110
   XY=             11.9363   XZ=            -13.7673   YZ=             -3.3096

 Normal termination of Gaussian 16 at Thu Sep 24 05:31:26 2020.
