 Gaussian 16, Revision B.01,

 ----------------------------------------------------------------------
 #p b3lyp/6-31G(d) opt freq NoSymm scf=(MaxCycle=2000,NoVarAcc,NoIncFoc
 k) scrf=(iefpcm,read,solvent=water)
 ----------------------------------------------------------------------

 -------------------
 SM41_m1.a.7.pdb.xyz
 -------------------
 Symbolic Z-matrix:
 Charge = -1 Multiplicity = 1

 SCF Done:  E(RB3LYP) =  -1119.88834863     A.U. after   13 cycles
 SCF Done:  E(RB3LYP) =  -1119.88808795     A.U. after   10 cycles
 SCF Done:  E(RB3LYP) =  -1119.88824836     A.U. after    9 cycles
 SCF Done:  E(RB3LYP) =  -1119.88834576     A.U. after   10 cycles
 SCF Done:  E(RB3LYP) =  -1119.88834996     A.U. after    8 cycles
 SCF Done:  E(RB3LYP) =  -1119.88821414     A.U. after   10 cycles
 SCF Done:  E(RB3LYP) =  -1119.88823914     A.U. after    8 cycles
 SCF Done:  E(RB3LYP) =  -1119.88834374     A.U. after   10 cycles
 SCF Done:  E(RB3LYP) =  -1119.88834964     A.U. after    8 cycles
 SCF Done:  E(RB3LYP) =  -1119.88834996     A.U. after    7 cycles
 SCF Done:  E(RB3LYP) =  -1119.88834975     A.U. after    8 cycles
 SCF Done:  E(RB3LYP) =  -1119.88824072     A.U. after   10 cycles
 SCF Done:  E(RB3LYP) =  -1119.88823693     A.U. after    7 cycles
 SCF Done:  E(RB3LYP) =  -1119.88834300     A.U. after   10 cycles
 SCF Done:  E(RB3LYP) =  -1119.88834973     A.U. after    9 cycles
 SCF Done:  E(RB3LYP) =  -1119.88823701     A.U. after   10 cycles
 Optimization completed.
    -- Stationary point found.
 Normal termination of Gaussian 16 at Thu Sep 24 05:25:54 2020.

 --------------------------------------------------------------------
 #P Geom=AllCheck Guess=TCheck SCRF=Check GenChk RB3LYP/6-31G(d) Freq
 --------------------------------------------------------------------

 Structure from the checkpoint file:  "SM41_m1.a.7.pdb.xyz.mst.a.w.chk"
 -------------------
 SM41_m1.a.7.pdb.xyz
 -------------------
 Charge = -1 Multiplicity = 1

 SCF Done:  E(RB3LYP) =  -1119.88823701     A.U. after    1 cycles

  Exact polarizability: 306.264  -6.302 204.254   7.085  -6.119  91.947
 Approx polarizability: 326.749  -4.659 257.058  10.416  -4.329 106.280

                      1                      2                      3
                      A                      A                      A
 Frequencies --     29.5839                39.7239                71.0512
 Red. masses --      4.0169                 5.2705                 7.0131
 Frc consts  --      0.0021                 0.0049                 0.0209
 IR Inten    --      1.2792                 5.5821                 2.8389

                      4                      5                      6
                      A                      A                      A
 Frequencies --     76.8247                96.7629               158.6754
 Red. masses --      5.4017                 5.3366                 5.9536
 Frc consts  --      0.0188                 0.0294                 0.0883
 IR Inten    --      7.6016                 4.6656                 8.3900

                      7                      8                      9
                      A                      A                      A
 Frequencies --    217.3229               243.2577               272.9745
 Red. masses --      4.7395                 1.1628                 4.7060
 Frc consts  --      0.1319                 0.0405                 0.2066
 IR Inten    --      2.8237                 1.1762                 0.1501

                     10                     11                     12
                      A                      A                      A
 Frequencies --    297.8555               318.8416               336.1911
 Red. masses --      4.7351                 5.9970                 5.0768
 Frc consts  --      0.2475                 0.3592                 0.3381
 IR Inten    --      0.6666                 0.3384                 0.2162

                     13                     14                     15
                      A                      A                      A
 Frequencies --    371.7887               411.8917               412.4893
 Red. masses --      8.1716                 4.7207                 4.4168
 Frc consts  --      0.6655                 0.4719                 0.4428
 IR Inten    --      2.2897                 5.0989                 4.8767

                     16                     17                     18
                      A                      A                      A
 Frequencies --    465.6418               488.5359               496.0589
 Red. masses --      5.9784                 8.2978                 4.0723
 Frc consts  --      0.7637                 1.1668                 0.5904
 IR Inten    --      6.6075                78.1335                 7.0459

                     19                     20                     21
                      A                      A                      A
 Frequencies --    540.7903               630.9970               661.5359
 Red. masses --      8.3964                 6.4381                 7.3459
 Frc consts  --      1.4468                 1.5103                 1.8941
 IR Inten    --    146.4568                 0.0089                 1.5775

                     22                     23                     24
                      A                      A                      A
 Frequencies --    677.3378               704.7589               707.5270
 Red. masses --      7.2366                 2.2681                 3.4030
 Frc consts  --      1.9561                 0.6637                 1.0037
 IR Inten    --     33.8043                67.9222                 0.6686

                     25                     26                     27
                      A                      A                      A
 Frequencies --    720.0330               755.1020               783.2199
 Red. masses --      4.9472                 7.2486                 1.7480
 Frc consts  --      1.5112                 2.4351                 0.6318
 IR Inten    --      3.0683               143.4333                63.3003

                     28                     29                     30
                      A                      A                      A
 Frequencies --    822.6272               863.6709               915.4661
 Red. masses --      1.4831                 1.2511                 8.8088
 Frc consts  --      0.5913                 0.5499                 4.3496
 IR Inten    --     37.0656                 0.0874                23.2929

                     31                     32                     33
                      A                      A                      A
 Frequencies --    932.1479               941.5798               956.5055
 Red. masses --      9.7066                 1.3911                 8.7835
 Frc consts  --      4.9692                 0.7266                 4.7347
 IR Inten    --    185.5314                 4.4620                51.6148

                     34                     35                     36
                      A                      A                      A
 Frequencies --    980.9859               993.4394               997.2272
 Red. masses --      1.3481                 1.4828                 1.4048
 Frc consts  --      0.7644                 0.8622                 0.8231
 IR Inten    --      0.0322                65.5176                14.9363

                     37                     38                     39
                      A                      A                      A
 Frequencies --   1009.3697              1016.1897              1043.2581
 Red. masses --      1.2591                 6.1118                 2.6850
 Frc consts  --      0.7558                 3.7185                 1.7218
 IR Inten    --      0.2779                 0.3803                37.0732

                     40                     41                     42
                      A                      A                      A
 Frequencies --   1054.9075              1089.5178              1096.7135
 Red. masses --      2.4420                 3.1359                 8.3298
 Frc consts  --      1.6011                 2.1932                 5.9030
 IR Inten    --     30.8026               263.1606               427.2324

                     43                     44                     45
                      A                      A                      A
 Frequencies --   1105.7403              1186.0338              1198.3885
 Red. masses --      1.5704                 1.0964                 1.1497
 Frc consts  --      1.1312                 0.9087                 0.9728
 IR Inten    --     25.8181                 0.3129                 3.1622

                     46                     47                     48
                      A                      A                      A
 Frequencies --   1211.7787              1233.0167              1296.9469
 Red. masses --      7.9255                 2.6220                 4.3243
 Frc consts  --      6.8568                 2.3487                 4.2856
 IR Inten    --    354.1992               215.2331                19.3136

                     49                     50                     51
                      A                      A                      A
 Frequencies --   1350.1522              1366.4216              1383.8383
 Red. masses --      2.9829                 2.2288                 1.2183
 Frc consts  --      3.2037                 2.4518                 1.3746
 IR Inten    --     46.7932                 1.8730                28.8498

                     52                     53                     54
                      A                      A                      A
 Frequencies --   1435.2662              1476.2581              1487.4976
 Red. masses --      7.0773                 4.5475                 1.0587
 Frc consts  --      8.5897                 5.8391                 1.3802
 IR Inten    --    310.9993               528.8600                 3.4344

                     55                     56                     57
                      A                      A                      A
 Frequencies --   1488.6311              1497.2489              1539.5740
 Red. masses --      1.1076                 2.4738                 2.4302
 Frc consts  --      1.4462                 3.2674                 3.3938
 IR Inten    --     29.5299               159.2055               154.4977

                     58                     59                     60
                      A                      A                      A
 Frequencies --   1626.2073              1650.9565              1666.0265
 Red. masses --      5.7788                 6.7994                 6.2414
 Frc consts  --      9.0040                10.9192                10.2069
 IR Inten    --    141.8291               108.0455                37.1474

                     61                     62                     63
                      A                      A                      A
 Frequencies --   3098.0660              3194.1664              3201.7635
 Red. masses --      1.0302                 1.1066                 1.1071
 Frc consts  --      5.8257                 6.6522                 6.6869
 IR Inten    --      5.0398                 6.6716                 6.2318

                     64                     65                     66
                      A                      A                      A
 Frequencies --   3204.3302              3211.8740              3222.0387
 Red. masses --      1.0857                 1.0887                 1.0921
 Frc consts  --      6.5681                 6.6171                 6.6797
 IR Inten    --      1.7846                12.7927                43.1005

                     67                     68                     69
                      A                      A                      A
 Frequencies --   3228.5349              3234.6064              3330.6035
 Red. masses --      1.0946                 1.0957                 1.0970
 Frc consts  --      6.7224                 6.7547                 7.1696
 IR Inten    --     37.5534                14.6440                 5.8587

 - Thermochemistry -
 -------------------
 Temperature   298.150 Kelvin.  Pressure   1.00000 Atm.
 Atom     1 has atomic number  8 and mass  15.99491

 Molecular mass:   237.03339 amu.
 Principal axes and moments of inertia in atomic units:
                           1         2         3
     Eigenvalues --  1343.172398355.968569267.33288
           X            0.99986   0.00662  -0.01541
           Y           -0.00526   0.99621   0.08688
           Z            0.01593  -0.08678   0.99610
 This molecule is an asymmetric top.
 Rotational symmetry number  1.
 Warning -- assumption of classical behavior for rotation
           may cause significant error
 Rotational temperatures (Kelvin)      0.06448     0.01037     0.00935
 Rotational constants (GHZ):           1.34364     0.21598     0.19474
 Zero-point vibrational energy     477467.6 (Joules/Mol)
                                  114.11749 (Kcal/Mol)
 Warning -- explicit consideration of  19 degrees of freedom as
           vibrations may cause significant error
 Vibrational temperatures:     42.56    57.15   102.23   110.53   139.22
          (Kelvin)            228.30   312.68   349.99   392.75   428.55
                              458.74   483.70   534.92   592.62   593.48
                              669.95   702.89   713.72   778.08   907.86
                              951.80   974.54  1013.99  1017.97  1035.97
                             1086.42  1126.88  1183.58  1242.63  1317.15
                             1341.15  1354.72  1376.20  1411.42  1429.34
                             1434.79  1452.26  1462.07  1501.02  1517.78
                             1567.57  1577.93  1590.91  1706.44  1724.21
                             1743.48  1774.04  1866.02  1942.57  1965.98
                             1991.03  2065.03  2124.01  2140.18  2141.81
                             2154.21  2215.10  2339.75  2375.36  2397.04
                             4457.43  4595.69  4606.62  4610.32  4621.17
                             4635.80  4645.14  4653.88  4792.00

 Zero-point correction=                           0.181858 (Hartree/Particle)
 Thermal correction to Energy=                    0.195569
 Thermal correction to Enthalpy=                  0.196513
 Thermal correction to Gibbs Free Energy=         0.139531
 Sum of electronic and zero-point Energies=          -1119.706379
 Sum of electronic and thermal Energies=             -1119.692668
 Sum of electronic and thermal Enthalpies=           -1119.691724
 Sum of electronic and thermal Free Energies=        -1119.748706

                     E (Thermal)             CV                S
                      KCal/Mol        Cal/Mol-Kelvin    Cal/Mol-Kelvin
 Total                  122.721             52.228            119.928
 Electronic               0.000              0.000              0.000
 Translational            0.889              2.981             42.291
 Rotational               0.889              2.981             33.008
 Vibrational            120.944             46.266             44.629
 Vibration     1          0.593              1.984              5.857
 Vibration     2          0.594              1.981              5.273
 Vibration     3          0.598              1.968              4.124
 Vibration     4          0.599              1.965              3.970
 Vibration     5          0.603              1.951              3.518
 Vibration     6          0.621              1.893              2.566
 Vibration     7          0.646              1.815              1.981
 Vibration     8          0.659              1.774              1.779
 Vibration     9          0.676              1.723              1.577
 Vibration    10          0.691              1.678              1.429
 Vibration    11          0.705              1.638              1.316
 Vibration    12          0.717              1.603              1.230
 Vibration    13          0.743              1.530              1.072
 Vibration    14          0.776              1.444              0.920
 Vibration    15          0.776              1.443              0.918
 Vibration    16          0.823              1.326              0.750
 Vibration    17          0.844              1.275              0.687
 Vibration    18          0.852              1.259              0.668
 Vibration    19          0.896              1.160              0.564

 Optimization completed.
    -- Stationary point found.
 Normal termination of Gaussian 16 at Thu Sep 24 05:31:43 2020.

 ----------------------------------------------------------------------
 #p b3lyp/6-31G(d) scrf=(iefpcm,read,solvent=water) geom=allcheck guess
 =read
 ----------------------------------------------------------------------

 Structure from the checkpoint file:  "SM41_m1.a.7.pdb.xyz.mst.a.w.chk"
 -------------------
 SM41_m1.a.7.pdb.xyz
 -------------------
 Charge = -1 Multiplicity = 1

 SCF Done:  E(RB3LYP) =  -1119.88821053     A.U. after    7 cycles
 Normal termination of Gaussian 16 at Thu Sep 24 05:32:12 2020.

 -----------------------------
 #p B3LYP/6-31G* geom=allcheck
 -----------------------------

 Structure from the checkpoint file:  "SM41_m1.a.7.pdb.xyz.mst.a.w.chk"
 -------------------
 SM41_m1.a.7.pdb.xyz
 -------------------
 Charge = -1 Multiplicity = 1

 SCF Done:  E(RB3LYP) =  -1119.79039572     A.U. after   15 cycles
 Normal termination of Gaussian 16 at Thu Sep 24 05:32:40 2020.
 Gaussian 16:  ES64L-G16RevB.01 20-Dec-2017

 ----------------------------------------------------------------------
 #p mp2/aug-cc-pVDZ scf=(MaxCycle=2000,NoVarAcc,NoIncFock) maxdisk=120G
 B geom=allcheck
 ----------------------------------------------------------------------

 Structure from the checkpoint file:  "SM41_m1.a.7.pdb.xyz.mst.a.w.chk"
 -------------------
 SM41_m1.a.7.pdb.xyz
 -------------------
 Charge = -1 Multiplicity = 1

                         Standard orientation:
 ---------------------------------------------------------------------
 Center     Atomic      Atomic             Coordinates (Angstroms)
 Number     Number       Type             X           Y           Z
 ---------------------------------------------------------------------
      1          8           0       -4.695904   -0.098327   -0.433227
      2         16           0       -3.274300   -0.381956   -0.115977
      3          7           0       -2.489183    1.015961   -0.208887
      4          6           0       -1.117904    1.017583   -0.121375
      5          7           0       -0.505286    2.199883   -0.007177
      6          8           0        0.882220    1.907826    0.034441
      7          6           0        1.058037    0.568340   -0.045599
      8          6           0        2.429248    0.065515   -0.017313
      9          6           0        2.672456   -1.314209   -0.117652
     10          6           0        3.975956   -1.802029   -0.092547
     11          6           0        5.054050   -0.921349    0.033194
     12          6           0        4.819147    0.451722    0.133808
     13          6           0        3.516218    0.945252    0.108936
     14          6           0       -0.152287   -0.048882   -0.146975
     15          6           0       -3.232312   -0.915399    1.608472
     16          8           0       -2.660102   -1.496415   -0.894210
     17          1           0        1.837299   -1.998531   -0.215891
     18          1           0        4.151247   -2.869787   -0.171529
     19          1           0        6.069371   -1.303068    0.052376
     20          1           0        5.651793    1.140104    0.231972
     21          1           0        3.331941    2.010310    0.186985
     22          1           0       -0.359736   -1.099113   -0.254911
     23          1           0       -3.698788   -0.146193    2.223995
     24          1           0       -2.194977   -1.063936    1.911435
     25          1           0       -3.783423   -1.853327    1.689930
 ---------------------------------------------------------------------

 SCF Done:  E(RHF) =  -1114.93146911     A.U. after   18 cycles
 E2 =    -0.2464426854D+01 EUMP2 =    -0.11173958959647D+04

 The electronic state is 1-A.
 Alpha  occ. eigenvalues --  -92.04939 -20.50430 -20.38792 -20.38149 -15.45989
 Alpha  occ. eigenvalues --  -15.38964 -11.20013 -11.17965 -11.17450 -11.17157
 Alpha  occ. eigenvalues --  -11.17004 -11.16936 -11.16701 -11.16424 -11.13760
 Alpha  occ. eigenvalues --  -11.10977  -9.01695  -6.70250  -6.70168  -6.70111
 Alpha  occ. eigenvalues --   -1.34033  -1.27739  -1.15503  -1.08579  -1.07505
 Alpha  occ. eigenvalues --   -0.98606  -0.96114  -0.94235  -0.90832  -0.87824
 Alpha  occ. eigenvalues --   -0.77065  -0.75581  -0.70561  -0.67626  -0.63919
 Alpha  occ. eigenvalues --   -0.60886  -0.57622  -0.55234  -0.54519  -0.52033
 Alpha  occ. eigenvalues --   -0.51524  -0.51061  -0.50719  -0.49684  -0.48311
 Alpha  occ. eigenvalues --   -0.46145  -0.44636  -0.43480  -0.42950  -0.42596
 Alpha  occ. eigenvalues --   -0.41047  -0.35924  -0.34173  -0.32826  -0.32342
 Alpha  occ. eigenvalues --   -0.30374  -0.29544  -0.29265  -0.26362  -0.25460
 Alpha  occ. eigenvalues --   -0.20747  -0.18300
 Alpha virt. eigenvalues --    0.08865   0.09998   0.11058   0.12415   0.13436
 Alpha virt. eigenvalues --    0.14135   0.14625   0.15257   0.16326   0.17786
 Alpha virt. eigenvalues --    0.18041   0.18141   0.18260   0.19583   0.20250

 Mulliken charges:
               1
     1  O   -1.226534
     2  S    2.801830
     3  N   -1.248088
     4  C   -0.034714
     5  N   -0.412643
     6  O   -1.135583
     7  C    0.325189
     8  C    1.376046
     9  C    0.528896
    10  C    0.023364
    11  C    0.488469
    12  C    0.257350
    13  C    0.360129
    14  C    1.590655
    15  C    0.052799
    16  O   -1.299678
    17  H   -0.552493
    18  H   -0.501791
    19  H   -0.456388
    20  H   -0.456471
    21  H   -0.658831
    22  H   -0.725210
    23  H    0.001065
    24  H   -0.062621
    25  H   -0.034748
 Sum of Mulliken charges =  -1.00000

 Dipole moment (field-independent basis, Debye):
    X=             12.2136    Y=             -4.4090    Z=              3.9971  Tot=             13.5863
 Quadrupole moment (field-independent basis, Debye-Ang):
   XX=           -155.5401   YY=           -118.6911   ZZ=           -108.5793
   XY=              1.8499   XZ=            -14.1663   YZ=             -3.3410

 Normal termination of Gaussian 16 at Thu Sep 24 05:48:32 2020.
