 Gaussian 16, Revision B.01,

 ----------------------------------------------------------------------
 #p b3lyp/6-31G(d) opt freq NoSymm scf=(MaxCycle=2000,NoVarAcc,NoIncFoc
 k) scrf=(iefpcm,read,solvent=water)
 ----------------------------------------------------------------------

 -------------------
 SM41_m1.a.1.pdb.xyz
 -------------------
 Symbolic Z-matrix:
 Charge = -1 Multiplicity = 1

 SCF Done:  E(RB3LYP) =  -1119.88804680     A.U. after   13 cycles
 SCF Done:  E(RB3LYP) =  -1119.88794658     A.U. after   10 cycles
 SCF Done:  E(RB3LYP) =  -1119.88796766     A.U. after    8 cycles
 SCF Done:  E(RB3LYP) =  -1119.88804446     A.U. after    9 cycles
 SCF Done:  E(RB3LYP) =  -1119.88804741     A.U. after    8 cycles
 SCF Done:  E(RB3LYP) =  -1119.88794821     A.U. after   10 cycles
 SCF Done:  E(RB3LYP) =  -1119.88795587     A.U. after    8 cycles
 SCF Done:  E(RB3LYP) =  -1119.88804398     A.U. after   10 cycles
 SCF Done:  E(RB3LYP) =  -1119.88804729     A.U. after    8 cycles
 SCF Done:  E(RB3LYP) =  -1119.88794925     A.U. after   10 cycles
 SCF Done:  E(RB3LYP) =  -1119.88804731     A.U. after    8 cycles
 SCF Done:  E(RB3LYP) =  -1119.88793672     A.U. after   10 cycles
 SCF Done:  E(RB3LYP) =  -1119.88793706     A.U. after    7 cycles
 SCF Done:  E(RB3LYP) =  -1119.88804447     A.U. after   10 cycles
 SCF Done:  E(RB3LYP) =  -1119.88804731     A.U. after    8 cycles
 SCF Done:  E(RB3LYP) =  -1119.88793587     A.U. after   10 cycles
 Optimization completed.
    -- Stationary point found.
 Normal termination of Gaussian 16 at Thu Sep 24 04:59:47 2020.

 --------------------------------------------------------------------
 #P Geom=AllCheck Guess=TCheck SCRF=Check GenChk RB3LYP/6-31G(d) Freq
 --------------------------------------------------------------------

 Structure from the checkpoint file:  "SM41_m1.a.1.pdb.xyz.mst.a.w.chk"
 -------------------
 SM41_m1.a.1.pdb.xyz
 -------------------
 Charge = -1 Multiplicity = 1

 SCF Done:  E(RB3LYP) =  -1119.88793587     A.U. after    1 cycles

  Exact polarizability: 307.877  -3.025 202.482  10.188  -8.389  90.583
 Approx polarizability: 317.884  -0.650 255.358   7.848  -9.665 113.172

                      1                      2                      3
                      A                      A                      A
 Frequencies --     21.6099                30.6416                64.7518
 Red. masses --      4.9209                 5.1061                 6.0376
 Frc consts  --      0.0014                 0.0028                 0.0149
 IR Inten    --      4.6391                 9.4642                 3.5622

                      4                      5                      6
                      A                      A                      A
 Frequencies --     68.6750                90.0799               145.4622
 Red. masses --      7.2238                 5.7085                 5.9966
 Frc consts  --      0.0201                 0.0273                 0.0748
 IR Inten    --      2.4120                 5.5971                16.0102

                      7                      8                      9
                      A                      A                      A
 Frequencies --    216.4841               230.7869               238.9056
 Red. masses --      5.1512                 1.3779                 1.9653
 Frc consts  --      0.1422                 0.0432                 0.0661
 IR Inten    --      1.5283                 2.0902                 3.6498

                     10                     11                     12
                      A                      A                      A
 Frequencies --    299.3248               325.0945               347.9519
 Red. masses --      4.7462                 7.4913                 6.4134
 Frc consts  --      0.2505                 0.4665                 0.4575
 IR Inten    --      1.3080                 0.1944                 1.6974

                     13                     14                     15
                      A                      A                      A
 Frequencies --    354.9309               412.4182               449.1998
 Red. masses --      7.3659                 2.9782                 9.8660
 Frc consts  --      0.5467                 0.2985                 1.1729
 IR Inten    --      2.3125                 0.0004                28.1169

                     16                     17                     18
                      A                      A                      A
 Frequencies --    459.7174               487.3903               495.6536
 Red. masses --      7.0736                 7.0904                 4.0764
 Frc consts  --      0.8808                 0.9924                 0.5900
 IR Inten    --     16.2233                52.7808                 2.6468

                     19                     20                     21
                      A                      A                      A
 Frequencies --    533.9922               630.9828               659.8806
 Red. masses --      8.2104                 6.4371                 7.3879
 Frc consts  --      1.3794                 1.5100                 1.8954
 IR Inten    --    173.5338                 0.0326                 3.6183

                     22                     23                     24
                      A                      A                      A
 Frequencies --    670.9927               703.9053               709.2568
 Red. masses --      6.6400                 1.9652                 3.4169
 Frc consts  --      1.7614                 0.5737                 1.0127
 IR Inten    --     19.2896                41.0484                 9.2636

                     25                     26                     27
                      A                      A                      A
 Frequencies --    722.5824               764.2488               780.4547
 Red. masses --      5.1434                 7.2809                 1.5920
 Frc consts  --      1.5823                 2.5056                 0.5713
 IR Inten    --     21.2143               160.4882                89.9277

                     28                     29                     30
                      A                      A                      A
 Frequencies --    808.2073               864.1688               918.5198
 Red. masses --      1.8023                 1.2520                11.4124
 Frc consts  --      0.6936                 0.5509                 5.6729
 IR Inten    --     23.8914                 0.0451                39.3455

                     31                     32                     33
                      A                      A                      A
 Frequencies --    928.7086               941.8566               956.0787
 Red. masses --     10.3269                 1.3927                 8.8725
 Frc consts  --      5.2478                 0.7279                 4.7784
 IR Inten    --    239.0888                 3.9086                37.4823

                     34                     35                     36
                      A                      A                      A
 Frequencies --    981.6699               999.1373              1002.3762
 Red. masses --      1.3487                 1.3829                 1.6457
 Frc consts  --      0.7658                 0.8134                 0.9742
 IR Inten    --      0.0535                 5.2899                34.7076

                     37                     38                     39
                      A                      A                      A
 Frequencies --   1009.2589              1016.2459              1037.6503
 Red. masses --      1.2598                 6.0918                 2.3171
 Frc consts  --      0.7560                 3.7067                 1.4699
 IR Inten    --      0.2304                 0.0965                 7.9182

                     40                     41                     42
                      A                      A                      A
 Frequencies --   1054.4794              1080.9273              1092.8017
 Red. masses --      2.2845                 4.7285                 4.4204
 Frc consts  --      1.4967                 3.2551                 3.1102
 IR Inten    --     44.5762               531.0431                42.2308

                     43                     44                     45
                      A                      A                      A
 Frequencies --   1105.5438              1179.0467              1185.0167
 Red. masses --      1.5571                11.5458                 1.1031
 Frc consts  --      1.1213                 9.4566                 0.9127
 IR Inten    --     13.3773               435.7505                 2.5312

                     46                     47                     48
                      A                      A                      A
 Frequencies --   1197.4216              1229.5160              1296.7125
 Red. masses --      1.1551                 2.3222                 4.3558
 Frc consts  --      0.9758                 2.0683                 4.3153
 IR Inten    --     14.1889                99.8311                14.0537

                     49                     50                     51
                      A                      A                      A
 Frequencies --   1350.3405              1366.2332              1391.9038
 Red. masses --      2.9265                 2.2606                 1.2253
 Frc consts  --      3.1441                 2.4862                 1.3987
 IR Inten    --     43.6801                 2.0375                 2.0813

                     52                     53                     54
                      A                      A                      A
 Frequencies --   1436.1353              1480.3068              1483.7311
 Red. masses --      7.1223                 4.3883                 1.0544
 Frc consts  --      8.6549                 5.6657                 1.3677
 IR Inten    --    318.2256               580.6742                10.9104

                     55                     56                     57
                      A                      A                      A
 Frequencies --   1490.5177              1498.0475              1539.7907
 Red. masses --      1.0970                 2.5995                 2.4459
 Frc consts  --      1.4360                 3.4371                 3.4167
 IR Inten    --     29.3655               251.7160               176.1441

                     58                     59                     60
                      A                      A                      A
 Frequencies --   1626.9422              1651.4229              1666.3947
 Red. masses --      5.7788                 6.7828                 6.3173
 Frc consts  --      9.0122                10.8987                10.3356
 IR Inten    --    137.8806               113.3417                42.7659

                     61                     62                     63
                      A                      A                      A
 Frequencies --   3106.0943              3203.8214              3204.5735
 Red. masses --      1.0305                 1.1066                 1.0856
 Frc consts  --      5.8576                 6.6924                 6.5684
 IR Inten    --      2.5646                 5.4853                 1.5002

                     64                     65                     66
                      A                      A                      A
 Frequencies --   3210.1109              3211.6851              3220.7257
 Red. masses --      1.1077                 1.0886                 1.0923
 Frc consts  --      6.7251                 6.6156                 6.6759
 IR Inten    --      4.1506                10.9021                44.4918

                     67                     68                     69
                      A                      A                      A
 Frequencies --   3228.0484              3235.0289              3325.0718
 Red. masses --      1.0954                 1.0950                 1.0974
 Frc consts  --      6.7251                 6.7520                 7.1483
 IR Inten    --     39.4986                13.6634                 2.1558

 - Thermochemistry -
 -------------------
 Temperature   298.150 Kelvin.  Pressure   1.00000 Atm.
 Atom     1 has atomic number  8 and mass  15.99491

 Molecular mass:   237.03339 amu.
 Principal axes and moments of inertia in atomic units:
                           1         2         3
     Eigenvalues --  1309.372468467.813569402.02602
           X            0.99908  -0.02729  -0.03318
           Y            0.03026   0.99525   0.09256
           Z            0.03050  -0.09348   0.99515
 This molecule is an asymmetric top.
 Rotational symmetry number  1.
 Warning -- assumption of classical behavior for rotation
           may cause significant error
 Rotational temperatures (Kelvin)      0.06615     0.01023     0.00921
 Rotational constants (GHZ):           1.37833     0.21313     0.19195
 Zero-point vibrational energy     476877.2 (Joules/Mol)
                                  113.97639 (Kcal/Mol)
 Warning -- explicit consideration of  19 degrees of freedom as
           vibrations may cause significant error
 Vibrational temperatures:     31.09    44.09    93.16    98.81   129.60
          (Kelvin)            209.29   311.47   332.05   343.73   430.66
                              467.74   500.63   510.67   593.38   646.30
                              661.43   701.25   713.13   768.30   907.84
                              949.42   965.41  1012.76  1020.46  1039.63
                             1099.58  1122.90  1162.83  1243.35  1321.55
                             1336.20  1355.12  1375.58  1412.40  1437.54
                             1442.20  1452.10  1462.15  1492.95  1517.16
                             1555.21  1572.30  1590.63  1696.39  1704.97
                             1722.82  1769.00  1865.68  1942.84  1965.70
                             2002.64  2066.28  2129.83  2134.76  2144.52
                             2155.36  2215.42  2340.81  2376.03  2397.57
                             4468.98  4609.58  4610.67  4618.63  4620.90
                             4633.91  4644.44  4654.49  4784.04

 Zero-point correction=                           0.181633 (Hartree/Particle)
 Thermal correction to Energy=                    0.195491
 Thermal correction to Enthalpy=                  0.196436
 Thermal correction to Gibbs Free Energy=         0.138459
 Sum of electronic and zero-point Energies=          -1119.706303
 Sum of electronic and thermal Energies=             -1119.692445
 Sum of electronic and thermal Enthalpies=           -1119.691500
 Sum of electronic and thermal Free Energies=        -1119.749477

                     E (Thermal)             CV                S
                      KCal/Mol        Cal/Mol-Kelvin    Cal/Mol-Kelvin
 Total                  122.673             52.330            122.021
 Electronic               0.000              0.000              0.000
 Translational            0.889              2.981             42.291
 Rotational               0.889              2.981             33.011
 Vibrational            120.895             46.369             46.720
 Vibration     1          0.593              1.985              6.480
 Vibration     2          0.594              1.984              5.787
 Vibration     3          0.597              1.971              4.307
 Vibration     4          0.598              1.969              4.191
 Vibration     5          0.602              1.956              3.658
 Vibration     6          0.617              1.908              2.731
 Vibration     7          0.645              1.816              1.988
 Vibration     8          0.652              1.794              1.873
 Vibration     9          0.657              1.781              1.811
 Vibration    10          0.692              1.675              1.421
 Vibration    11          0.709              1.625              1.284
 Vibration    12          0.726              1.579              1.175
 Vibration    13          0.731              1.565              1.144
 Vibration    14          0.776              1.443              0.918
 Vibration    15          0.808              1.363              0.798
 Vibration    16          0.818              1.339              0.767
 Vibration    17          0.843              1.278              0.690
 Vibration    18          0.851              1.260              0.669
 Vibration    19          0.889              1.175              0.578

 Optimization completed.
    -- Stationary point found.
 Normal termination of Gaussian 16 at Thu Sep 24 05:04:47 2020.

 ----------------------------------------------------------------------
 #p b3lyp/6-31G(d) scrf=(iefpcm,read,solvent=water) geom=allcheck guess
 =read
 ----------------------------------------------------------------------

 Structure from the checkpoint file:  "SM41_m1.a.1.pdb.xyz.mst.a.w.chk"
 -------------------
 SM41_m1.a.1.pdb.xyz
 -------------------
 Charge = -1 Multiplicity = 1

 SCF Done:  E(RB3LYP) =  -1119.88792408     A.U. after    6 cycles
 Normal termination of Gaussian 16 at Thu Sep 24 05:05:13 2020.

 -----------------------------
 #p B3LYP/6-31G* geom=allcheck
 -----------------------------

 Structure from the checkpoint file:  "SM41_m1.a.1.pdb.xyz.mst.a.w.chk"
 -------------------
 SM41_m1.a.1.pdb.xyz
 -------------------
 Charge = -1 Multiplicity = 1

 SCF Done:  E(RB3LYP) =  -1119.79152824     A.U. after   15 cycles
 Normal termination of Gaussian 16 at Thu Sep 24 05:05:39 2020.
 Gaussian 16:  ES64L-G16RevB.01 20-Dec-2017

 ----------------------------------------------------------------------
 #p mp2/aug-cc-pVDZ scf=(MaxCycle=2000,NoVarAcc,NoIncFock) maxdisk=120G
 B geom=allcheck
 ----------------------------------------------------------------------

 Structure from the checkpoint file:  "SM41_m1.a.1.pdb.xyz.mst.a.w.chk"
 -------------------
 SM41_m1.a.1.pdb.xyz
 -------------------
 Charge = -1 Multiplicity = 1

                         Standard orientation:
 ---------------------------------------------------------------------
 Center     Atomic      Atomic             Coordinates (Angstroms)
 Number     Number       Type             X           Y           Z
 ---------------------------------------------------------------------
      1          8           0       -2.709272   -1.516352   -0.870097
      2         16           0       -3.192163   -0.455617    0.065231
      3          7           0       -2.454757    0.965959   -0.103930
      4          6           0       -1.084050    0.987544   -0.048094
      5          7           0       -0.475918    2.176734   -0.000588
      6          8           0        0.914769    1.891757    0.012020
      7          6           0        1.095681    0.550854   -0.019060
      8          6           0        2.471326    0.059415   -0.010442
      9          6           0        2.726154   -1.321441   -0.042766
     10          6           0        4.035315   -1.794803   -0.036033
     11          6           0        5.107259   -0.898619    0.003168
     12          6           0        4.860723    0.475745    0.035762
     13          6           0        3.552215    0.954733    0.029018
     14          6           0       -0.113333   -0.074892   -0.059588
     15          6           0       -4.856028   -0.017218   -0.446956
     16          8           0       -3.282258   -0.916354    1.483989
     17          1           0        1.896349   -2.018586   -0.073055
     18          1           0        4.220034   -2.863592   -0.061363
     19          1           0        6.126771   -1.269439    0.008266
     20          1           0        5.688484    1.176301    0.066357
     21          1           0        3.357530    2.020504    0.054020
     22          1           0       -0.315889   -1.130781   -0.111472
     23          1           0       -4.837793    0.304392   -1.487840
     24          1           0       -5.230790    0.781718    0.192277
     25          1           0       -5.472841   -0.909818   -0.336614
 ---------------------------------------------------------------------

 SCF Done:  E(RHF) =  -1114.93212688     A.U. after   18 cycles
 E2 =    -0.2463006588D+01 EUMP2 =    -0.11173951334718D+04

 The electronic state is 1-A.
 Alpha  occ. eigenvalues --  -92.04824 -20.49750 -20.38627 -20.38265 -15.45445
 Alpha  occ. eigenvalues --  -15.38778 -11.19259 -11.17580 -11.16851 -11.16598
 Alpha  occ. eigenvalues --  -11.16437 -11.16388 -11.16085 -11.15836 -11.13795
 Alpha  occ. eigenvalues --  -11.10375  -9.01645  -6.70159  -6.70115  -6.70067
 Alpha  occ. eigenvalues --   -1.33351  -1.27419  -1.14967  -1.08068  -1.07135
 Alpha  occ. eigenvalues --   -0.98152  -0.95873  -0.93689  -0.90237  -0.87947
 Alpha  occ. eigenvalues --   -0.76481  -0.74996  -0.70415  -0.67062  -0.63306
 Alpha  occ. eigenvalues --   -0.60236  -0.56858  -0.54623  -0.53946  -0.51402
 Alpha  occ. eigenvalues --   -0.50953  -0.50769  -0.50240  -0.49824  -0.47716
 Alpha  occ. eigenvalues --   -0.45335  -0.44498  -0.42945  -0.42363  -0.41977
 Alpha  occ. eigenvalues --   -0.40343  -0.36838  -0.35409  -0.32411  -0.31199
 Alpha  occ. eigenvalues --   -0.29854  -0.29210  -0.28780  -0.26092  -0.25780
 Alpha  occ. eigenvalues --   -0.20039  -0.17707
 Alpha virt. eigenvalues --    0.09210   0.10346   0.11452   0.12544   0.13758
 Alpha virt. eigenvalues --    0.14521   0.14573   0.15133   0.16629   0.17965
 Alpha virt. eigenvalues --    0.18415   0.18587   0.18720   0.19947   0.20464

 Mulliken charges:
               1
     1  O   -1.309726
     2  S    2.808063
     3  N   -1.279715
     4  C   -0.154866
     5  N   -0.449990
     6  O   -1.141324
     7  C    0.175797
     8  C    1.367649
     9  C    0.565137
    10  C    0.036911
    11  C    0.472185
    12  C    0.269455
    13  C    0.299683
    14  C    1.728396
    15  C    0.200218
    16  O   -1.269562
    17  H   -0.549755
    18  H   -0.500055
    19  H   -0.457579
    20  H   -0.456898
    21  H   -0.652938
    22  H   -0.681719
    23  H    0.009637
    24  H   -0.009163
    25  H   -0.019841
 Sum of Mulliken charges =  -1.00000

 Dipole moment (field-independent basis, Debye):
    X=              7.7086    Y=             -1.9847    Z=             -1.5158  Tot=              8.1030
 Quadrupole moment (field-independent basis, Debye-Ang):
   XX=           -120.1572   YY=           -121.1832   ZZ=           -116.1100
   XY=             -6.9071   XZ=              7.0927   YZ=              0.5331

 Normal termination of Gaussian 16 at Thu Sep 24 05:46:27 2020.
