 Gaussian 16, Revision B.01,

 ----------------------------------------------------------------------
 #p b3lyp/6-31G(d) opt freq NoSymm scf=(MaxCycle=2000,NoVarAcc,NoIncFoc
 k) scrf=(iefpcm,read,solvent=water)
 ----------------------------------------------------------------------

 --------------------
 SM41_m1.a.10.pdb.xyz
 --------------------
 Symbolic Z-matrix:
 Charge = -1 Multiplicity = 1

 SCF Done:  E(RB3LYP) =  -1119.88972935     A.U. after   13 cycles
 SCF Done:  E(RB3LYP) =  -1119.88961876     A.U. after   10 cycles
 SCF Done:  E(RB3LYP) =  -1119.88961925     A.U. after    9 cycles
 SCF Done:  E(RB3LYP) =  -1119.88972750     A.U. after   10 cycles
 SCF Done:  E(RB3LYP) =  -1119.88973074     A.U. after    8 cycles
 SCF Done:  E(RB3LYP) =  -1119.88961362     A.U. after   10 cycles
 SCF Done:  E(RB3LYP) =  -1119.88961771     A.U. after    8 cycles
 SCF Done:  E(RB3LYP) =  -1119.88972739     A.U. after   10 cycles
 SCF Done:  E(RB3LYP) =  -1119.88973065     A.U. after    8 cycles
 SCF Done:  E(RB3LYP) =  -1119.88959619     A.U. after   10 cycles
 SCF Done:  E(RB3LYP) =  -1119.88973060     A.U. after    8 cycles
 SCF Done:  E(RB3LYP) =  -1119.88961344     A.U. after   10 cycles
 SCF Done:  E(RB3LYP) =  -1119.88961542     A.U. after    7 cycles
 SCF Done:  E(RB3LYP) =  -1119.88972717     A.U. after   10 cycles
 SCF Done:  E(RB3LYP) =  -1119.88973060     A.U. after    8 cycles
 SCF Done:  E(RB3LYP) =  -1119.88961432     A.U. after   10 cycles
 Optimization completed.
    -- Stationary point found.
 Normal termination of Gaussian 16 at Thu Sep 24 04:57:02 2020.

 --------------------------------------------------------------------
 #P Geom=AllCheck Guess=TCheck SCRF=Check GenChk RB3LYP/6-31G(d) Freq
 --------------------------------------------------------------------

 Structure from the checkpoint file:  "SM41_m1.a.10.pdb.xyz.mst.a.w.chk"
 --------------------
 SM41_m1.a.10.pdb.xyz
 --------------------
 Charge = -1 Multiplicity = 1

 SCF Done:  E(RB3LYP) =  -1119.88961432     A.U. after    1 cycles

  Exact polarizability: 320.042  -7.844 194.008  -0.181 -11.471  91.724
 Approx polarizability: 328.925 -15.331 248.957  -1.337 -20.069 110.093

                      1                      2                      3
                      A                      A                      A
 Frequencies --     24.6626                37.4847                73.4145
 Red. masses --      4.0981                 7.0779                 5.7708
 Frc consts  --      0.0015                 0.0059                 0.0183
 IR Inten    --      2.2283                 3.3880                 2.3164

                      4                      5                      6
                      A                      A                      A
 Frequencies --     83.1912               104.5091               140.9597
 Red. masses --      6.4007                 5.3655                 5.8112
 Frc consts  --      0.0261                 0.0345                 0.0680
 IR Inten    --      7.5269                 4.9440                 0.3589

                      7                      8                      9
                      A                      A                      A
 Frequencies --    217.6980               227.7440               251.8071
 Red. masses --      4.5996                 1.0889                 7.2297
 Frc consts  --      0.1284                 0.0333                 0.2701
 IR Inten    --      2.0072                 0.2594                10.2525

                     10                     11                     12
                      A                      A                      A
 Frequencies --    287.3225               307.0350               348.6703
 Red. masses --      4.6093                 4.8252                 5.8582
 Frc consts  --      0.2242                 0.2680                 0.4196
 IR Inten    --      5.5747                 4.0853                 7.4011

                     13                     14                     15
                      A                      A                      A
 Frequencies --    389.3770               411.0529               415.6078
 Red. masses --      7.5697                 2.9924                 8.6702
 Frc consts  --      0.6762                 0.2979                 0.8824
 IR Inten    --      2.7317                 0.0011                 6.1487

                     16                     17                     18
                      A                      A                      A
 Frequencies --    463.1991               491.3294               496.6721
 Red. masses --      6.5757                 6.4306                 4.8084
 Frc consts  --      0.8312                 0.9146                 0.6989
 IR Inten    --     40.7763                76.3221                 9.2615

                     19                     20                     21
                      A                      A                      A
 Frequencies --    540.6918               631.1901               656.9439
 Red. masses --      6.2673                 6.4489                 7.1734
 Frc consts  --      1.0795                 1.5138                 1.8240
 IR Inten    --     71.4965                 0.0102                 1.6146

                     22                     23                     24
                      A                      A                      A
 Frequencies --    685.2637               703.1384               705.3909
 Red. masses --      6.6097                 3.5850                 2.3385
 Frc consts  --      1.8287                 1.0443                 0.6856
 IR Inten    --      4.0004                15.9153                54.6914

                     25                     26                     27
                      A                      A                      A
 Frequencies --    718.3817               763.7355               778.5136
 Red. masses --      3.7511                 9.1861                 1.5110
 Frc consts  --      1.1406                 3.1570                 0.5396
 IR Inten    --     16.3984               209.6636                92.4759

                     28                     29                     30
                      A                      A                      A
 Frequencies --    803.3050               864.4850               888.0946
 Red. masses --      1.9421                 1.2527                 9.0567
 Frc consts  --      0.7384                 0.5516                 4.2086
 IR Inten    --     12.9464                 0.0548               148.4821

                     31                     32                     33
                      A                      A                      A
 Frequencies --    927.0166               940.9244               957.2322
 Red. masses --     10.2659                 1.3917                 7.9867
 Frc consts  --      5.1978                 0.7259                 4.3118
 IR Inten    --     75.8849                 3.6124                21.0286

                     34                     35                     36
                      A                      A                      A
 Frequencies --    982.5089               992.4481               998.4030
 Red. masses --      1.3486                 1.4808                 1.4409
 Frc consts  --      0.7670                 0.8593                 0.8462
 IR Inten    --      0.0633                68.0652                24.5324

                     37                     38                     39
                      A                      A                      A
 Frequencies --   1010.2495              1016.6719              1037.6293
 Red. masses --      1.2593                 6.0946                 2.3906
 Frc consts  --      0.7572                 3.7115                 1.5165
 IR Inten    --      0.1545                 0.1719                24.1308

                     40                     41                     42
                      A                      A                      A
 Frequencies --   1055.0072              1084.2551              1097.8082
 Red. masses --      2.4520                 4.1659                 5.5340
 Frc consts  --      1.6080                 2.8855                 3.9296
 IR Inten    --     10.5040               402.9636               386.3831

                     43                     44                     45
                      A                      A                      A
 Frequencies --   1107.9988              1189.5579              1202.2272
 Red. masses --      1.5775                 1.0952                 1.1536
 Frc consts  --      1.1410                 0.9131                 0.9824
 IR Inten    --     14.9632                 0.0401                12.7555

                     46                     47                     48
                      A                      A                      A
 Frequencies --   1214.2723              1233.5708              1294.5945
 Red. masses --     13.6623                 2.3346                 4.7744
 Frc consts  --     11.8688                 2.0931                 4.7145
 IR Inten    --    459.2100               111.2278                 5.4527

                     49                     50                     51
                      A                      A                      A
 Frequencies --   1349.5714              1367.8418              1372.4379
 Red. masses --      2.9266                 2.1694                 1.2190
 Frc consts  --      3.1406                 2.3915                 1.3528
 IR Inten    --     29.1887                 1.5955                24.4491

                     52                     53                     54
                      A                      A                      A
 Frequencies --   1433.8887              1477.7702              1485.3012
 Red. masses --      6.8453                 1.1016                 3.0119
 Frc consts  --      8.2923                 1.4174                 3.9149
 IR Inten    --    223.6954                50.3111               398.2464

                     55                     56                     57
                      A                      A                      A
 Frequencies --   1494.0084              1500.2432              1541.0282
 Red. masses --      1.2056                 2.5495                 2.3889
 Frc consts  --      1.5854                 3.3809                 3.3424
 IR Inten    --      6.6491               353.5183               167.1511

                     58                     59                     60
                      A                      A                      A
 Frequencies --   1627.9023              1651.2586              1667.6566
 Red. masses --      5.7564                 6.8122                 6.1830
 Frc consts  --      8.9879                10.9438                10.1312
 IR Inten    --    114.8230                99.2920                29.6652

                     61                     62                     63
                      A                      A                      A
 Frequencies --   3099.3498              3198.3690              3204.3079
 Red. masses --      1.0299                 1.1070                 1.0857
 Frc consts  --      5.8291                 6.6720                 6.5680
 IR Inten    --      7.2004                 6.5000                 3.9892

                     64                     65                     66
                      A                      A                      A
 Frequencies --   3206.4919              3209.6589              3218.1413
 Red. masses --      1.1071                 1.0884                 1.0925
 Frc consts  --      6.7067                 6.6062                 6.6662
 IR Inten    --      1.2597                 3.5685                42.2371

                     67                     68                     69
                      A                      A                      A
 Frequencies --   3228.0509              3235.7801              3303.7647
 Red. masses --      1.0958                 1.0946                 1.0982
 Frc consts  --      6.7276                 6.7525                 7.0622
 IR Inten    --     47.3288                12.6101                 1.0262

 - Thermochemistry -
 -------------------
 Temperature   298.150 Kelvin.  Pressure   1.00000 Atm.
 Atom     1 has atomic number  8 and mass  15.99491

 Molecular mass:   237.03339 amu.
 Principal axes and moments of inertia in atomic units:
                           1         2         3
     Eigenvalues --   926.027169743.13599**********
           X            0.99989   0.00048   0.01512
           Y           -0.00184   0.99593   0.09013
           Z           -0.01501  -0.09015   0.99582
 This molecule is an asymmetric top.
 Rotational symmetry number  1.
 Warning -- assumption of classical behavior for rotation
           may cause significant error
 Rotational temperatures (Kelvin)      0.09353     0.00889     0.00844
 Rotational constants (GHZ):           1.94891     0.18523     0.17590
 Zero-point vibrational energy     476867.8 (Joules/Mol)
                                  113.97414 (Kcal/Mol)
 Warning -- explicit consideration of  19 degrees of freedom as
           vibrations may cause significant error
 Vibrational temperatures:     35.48    53.93   105.63   119.69   150.37
          (Kelvin)            202.81   313.22   327.67   362.29   413.39
                              441.75   501.66   560.23   591.41   597.97
                              666.44   706.91   714.60   777.93   908.14
                              945.20   985.94  1011.66  1014.90  1033.59
                             1098.84  1120.11  1155.78  1243.80  1277.77
                             1333.77  1353.78  1377.24  1413.61  1427.91
                             1436.48  1453.52  1462.76  1492.92  1517.92
                             1560.00  1579.50  1594.16  1711.51  1729.74
                             1747.07  1774.83  1862.63  1941.73  1968.02
                             1974.63  2063.05  2126.18  2137.02  2149.54
                             2158.52  2217.20  2342.19  2375.79  2399.39
                             4459.27  4601.74  4610.28  4613.43  4617.98
                             4630.19  4644.45  4655.57  4753.38

 Zero-point correction=                           0.181629 (Hartree/Particle)
 Thermal correction to Energy=                    0.195409
 Thermal correction to Enthalpy=                  0.196353
 Thermal correction to Gibbs Free Energy=         0.139140
 Sum of electronic and zero-point Energies=          -1119.707985
 Sum of electronic and thermal Energies=             -1119.694205
 Sum of electronic and thermal Enthalpies=           -1119.693261
 Sum of electronic and thermal Free Energies=        -1119.750474

                     E (Thermal)             CV                S
                      KCal/Mol        Cal/Mol-Kelvin    Cal/Mol-Kelvin
 Total                  122.621             52.341            120.414
 Electronic               0.000              0.000              0.000
 Translational            0.889              2.981             42.291
 Rotational               0.889              2.981             32.893
 Vibrational            120.844             46.380             45.231
 Vibration     1          0.593              1.985              6.218
 Vibration     2          0.594              1.982              5.388
 Vibration     3          0.599              1.967              4.060
 Vibration     4          0.600              1.961              3.814
 Vibration     5          0.605              1.946              3.368
 Vibration     6          0.615              1.912              2.791
 Vibration     7          0.646              1.814              1.978
 Vibration     8          0.651              1.799              1.897
 Vibration     9          0.664              1.760              1.718
 Vibration    10          0.684              1.697              1.490
 Vibration    11          0.697              1.660              1.378
 Vibration    12          0.726              1.578              1.172
 Vibration    13          0.757              1.493              1.003
 Vibration    14          0.775              1.446              0.923
 Vibration    15          0.779              1.436              0.907
 Vibration    16          0.821              1.332              0.757
 Vibration    17          0.847              1.269              0.680
 Vibration    18          0.852              1.257              0.666
 Vibration    19          0.896              1.160              0.564

 Optimization completed.
    -- Stationary point found.
 Normal termination of Gaussian 16 at Thu Sep 24 05:01:43 2020.

 ----------------------------------------------------------------------
 #p b3lyp/6-31G(d) scrf=(iefpcm,read,solvent=water) geom=allcheck guess
 =read
 ----------------------------------------------------------------------

 Structure from the checkpoint file:  "SM41_m1.a.10.pdb.xyz.mst.a.w.chk"
 --------------------
 SM41_m1.a.10.pdb.xyz
 --------------------
 Charge = -1 Multiplicity = 1

 SCF Done:  E(RB3LYP) =  -1119.88961716     A.U. after    6 cycles
 Normal termination of Gaussian 16 at Thu Sep 24 05:02:05 2020.

 -----------------------------
 #p B3LYP/6-31G* geom=allcheck
 -----------------------------

 Structure from the checkpoint file:  "SM41_m1.a.10.pdb.xyz.mst.a.w.chk"
 --------------------
 SM41_m1.a.10.pdb.xyz
 --------------------
 Charge = -1 Multiplicity = 1

 SCF Done:  E(RB3LYP) =  -1119.78928345     A.U. after   15 cycles
 Normal termination of Gaussian 16 at Thu Sep 24 05:02:28 2020.
 Gaussian 16:  ES64L-G16RevB.01 20-Dec-2017

 ----------------------------------------------------------------------
 #p mp2/aug-cc-pVDZ scf=(MaxCycle=2000,NoVarAcc,NoIncFock) maxdisk=120G
 B geom=allcheck
 ----------------------------------------------------------------------

 Structure from the checkpoint file:  "SM41_m1.a.10.pdb.xyz.mst.a.w.chk"
 --------------------
 SM41_m1.a.10.pdb.xyz
 --------------------
 Charge = -1 Multiplicity = 1

                         Standard orientation:
 ---------------------------------------------------------------------
 Center     Atomic      Atomic             Coordinates (Angstroms)
 Number     Number       Type             X           Y           Z
 ---------------------------------------------------------------------
      1          8           0        3.642369   -0.747542   -1.303305
      2         16           0        3.567146    0.147729   -0.114340
      3          7           0        2.193840    0.985778    0.005105
      4          6           0        0.992522    0.329571   -0.022839
      5          7           0        0.804602   -0.991956   -0.069319
      6          8           0       -0.605560   -1.175971   -0.058534
      7          6           0       -1.211415    0.035397   -0.008421
      8          6           0       -2.672086    0.047761    0.002648
      9          6           0       -3.370810    1.263519    0.082703
     10          6           0       -4.762949    1.274120    0.090964
     11          6           0       -5.476753    0.074516    0.019840
     12          6           0       -4.787744   -1.137721   -0.059392
     13          6           0       -3.394880   -1.153457   -0.068038
     14          6           0       -0.269094    1.017864    0.017264
     15          6           0        3.691080   -0.927386    1.327813
     16          8           0        4.668810    1.137643   -0.006901
     17          1           0       -2.821913    2.197776    0.139245
     18          1           0       -5.291868    2.219248    0.153272
     19          1           0       -6.561575    0.085511    0.026201
     20          1           0       -5.335345   -2.072730   -0.115202
     21          1           0       -2.857270   -2.092080   -0.130401
     22          1           0       -0.415727    2.085343    0.054906
     23          1           0        2.826217   -1.590073    1.333402
     24          1           0        3.707199   -0.309708    2.225909
     25          1           0        4.614668   -1.501848    1.246262
 ---------------------------------------------------------------------

 SCF Done:  E(RHF) =  -1114.93030634     A.U. after   18 cycles
 E2 =    -0.2462784563D+01 EUMP2 =    -0.11173930909065D+04

 The electronic state is 1-A.
 Alpha  occ. eigenvalues --  -92.03819 -20.50553 -20.37196 -20.37119 -15.45986
 Alpha  occ. eigenvalues --  -15.38796 -11.20382 -11.18068 -11.17774 -11.17465
 Alpha  occ. eigenvalues --  -11.17341 -11.17209 -11.17126 -11.16661 -11.12173
 Alpha  occ. eigenvalues --  -11.11612  -9.00597  -6.69135  -6.69073  -6.69020
 Alpha  occ. eigenvalues --   -1.34051  -1.26440  -1.14040  -1.08852  -1.07547
 Alpha  occ. eigenvalues --   -0.98668  -0.95918  -0.94475  -0.91258  -0.86670
 Alpha  occ. eigenvalues --   -0.77419  -0.75886  -0.70825  -0.67920  -0.64168
 Alpha  occ. eigenvalues --   -0.60485  -0.57629  -0.55098  -0.54806  -0.52084
 Alpha  occ. eigenvalues --   -0.51769  -0.50857  -0.49744  -0.48908  -0.47007
 Alpha  occ. eigenvalues --   -0.45109  -0.44059  -0.43546  -0.43168  -0.42499
 Alpha  occ. eigenvalues --   -0.41445  -0.35701  -0.33537  -0.32644  -0.31206
 Alpha  occ. eigenvalues --   -0.29892  -0.29515  -0.27793  -0.26673  -0.24933
 Alpha  occ. eigenvalues --   -0.20881  -0.18645
 Alpha virt. eigenvalues --    0.08692   0.09748   0.10797   0.12727   0.13126
 Alpha virt. eigenvalues --    0.13794   0.14970   0.15619   0.16122   0.16624
 Alpha virt. eigenvalues --    0.17657   0.17896   0.17997   0.19403   0.19877

 Mulliken charges:
               1
     1  O   -1.254205
     2  S    2.754052
     3  N   -1.370621
     4  C   -0.108655
     5  N   -0.285201
     6  O   -1.086882
     7  C    0.250001
     8  C    1.351153
     9  C    0.545010
    10  C    0.003548
    11  C    0.526558
    12  C    0.218638
    13  C    0.424225
    14  C    1.518976
    15  C    0.024391
    16  O   -1.222088
    17  H   -0.579267
    18  H   -0.495102
    19  H   -0.453320
    20  H   -0.454148
    21  H   -0.654082
    22  H   -0.580936
    23  H   -0.011975
    24  H   -0.008302
    25  H   -0.051769
 Sum of Mulliken charges =  -1.00000

 Dipole moment (field-independent basis, Debye):
    X=            -13.9787    Y=             -0.5324    Z=              3.6517  Tot=             14.4576
 Quadrupole moment (field-independent basis, Debye-Ang):
   XX=           -161.2858   YY=           -108.5215   ZZ=           -111.3405
   XY=            -11.9659   XZ=             13.7957   YZ=             -3.3813

 Normal termination of Gaussian 16 at Thu Sep 24 05:22:25 2020.
