 Gaussian 16, Revision B.01,

 ----------------------------------------------------------------------
 #p b3lyp/6-31G(d) opt freq NoSymm scf=(MaxCycle=2000,NoVarAcc,NoIncFoc
 k) scrf=(iefpcm,read,solvent=water)
 ----------------------------------------------------------------------

 -------------------
 SM41_m1.b.6.pdb.xyz
 -------------------
 Symbolic Z-matrix:
 Charge =  1 Multiplicity = 1

 SCF Done:  E(RB3LYP) =  -1120.77415559     A.U. after   13 cycles
 SCF Done:  E(RB3LYP) =  -1120.79371563     A.U. after   11 cycles
 SCF Done:  E(RB3LYP) =  -1120.79767631     A.U. after   11 cycles
 SCF Done:  E(RB3LYP) =  -1120.79848696     A.U. after   10 cycles
 SCF Done:  E(RB3LYP) =  -1120.79881173     A.U. after   10 cycles
 SCF Done:  E(RB3LYP) =  -1120.79898108     A.U. after   10 cycles
 SCF Done:  E(RB3LYP) =  -1120.79906879     A.U. after    9 cycles
 SCF Done:  E(RB3LYP) =  -1120.79911837     A.U. after    9 cycles
 SCF Done:  E(RB3LYP) =  -1120.79917177     A.U. after    9 cycles
 SCF Done:  E(RB3LYP) =  -1120.79918320     A.U. after    9 cycles
 SCF Done:  E(RB3LYP) =  -1120.79925640     A.U. after    9 cycles
 SCF Done:  E(RB3LYP) =  -1120.79926115     A.U. after    8 cycles
 SCF Done:  E(RB3LYP) =  -1120.79926838     A.U. after    9 cycles
 SCF Done:  E(RB3LYP) =  -1120.79927129     A.U. after    8 cycles
 SCF Done:  E(RB3LYP) =  -1120.79927239     A.U. after    8 cycles
 SCF Done:  E(RB3LYP) =  -1120.79927366     A.U. after    7 cycles
 Optimization completed.
    -- Stationary point found.
 Normal termination of Gaussian 16 at Thu Sep 24 04:56:46 2020.

 --------------------------------------------------------------------
 #P Geom=AllCheck Guess=TCheck SCRF=Check GenChk RB3LYP/6-31G(d) Freq
 --------------------------------------------------------------------

 Structure from the checkpoint file:  "SM41_m1.b.6.pdb.xyz.mst.b.w.chk"
 -------------------
 SM41_m1.b.6.pdb.xyz
 -------------------
 Charge =  1 Multiplicity = 1

 SCF Done:  E(RB3LYP) =  -1120.79927366     A.U. after    1 cycles

  Exact polarizability: 311.099 -16.710 198.091   6.527  -0.676  87.324
 Approx polarizability: 329.805 -17.149 242.853  11.653   1.954 102.284

                      1                      2                      3
                      A                      A                      A
 Frequencies --     35.5410                37.4515                63.1188
 Red. masses --      4.1809                 5.1431                 6.2249
 Frc consts  --      0.0031                 0.0043                 0.0146
 IR Inten    --      2.2023                 5.5955                 7.2119

                      4                      5                      6
                      A                      A                      A
 Frequencies --     78.2533                93.3536               154.4210
 Red. masses --      5.9112                 4.8062                 6.2930
 Frc consts  --      0.0213                 0.0247                 0.0884
 IR Inten    --      2.9464                 4.9365                 6.2740

                      7                      8                      9
                      A                      A                      A
 Frequencies --    212.8353               246.3312               253.3828
 Red. masses --      3.9563                 1.6181                 2.6719
 Frc consts  --      0.1056                 0.0578                 0.1011
 IR Inten    --      3.1786                 1.3113                 7.6267

                     10                     11                     12
                      A                      A                      A
 Frequencies --    275.9471               291.8944               298.9799
 Red. masses --      3.6837                 5.6868                 3.3195
 Frc consts  --      0.1653                 0.2855                 0.1748
 IR Inten    --     22.9054                20.7983                35.8973

                     13                     14                     15
                      A                      A                      A
 Frequencies --    329.3131               380.4249               410.1016
 Red. masses --      4.2527                 6.0006                 2.9103
 Frc consts  --      0.2717                 0.5117                 0.2884
 IR Inten    --      1.6897                12.0486                 0.8522

                     16                     17                     18
                      A                      A                      A
 Frequencies --    423.1194               432.9836               459.6378
 Red. masses --      1.3165                 1.5465                 5.4132
 Frc consts  --      0.1389                 0.1708                 0.6738
 IR Inten    --     17.8684               318.3847                 7.4348

                     19                     20                     21
                      A                      A                      A
 Frequencies --    478.2425               493.7270               514.4138
 Red. masses --      7.7567                 2.6834                 7.7673
 Frc consts  --      1.0453                 0.3854                 1.2110
 IR Inten    --     85.4321                33.2566               168.7395

                     22                     23                     24
                      A                      A                      A
 Frequencies --    629.1977               655.5624               685.5810
 Red. masses --      6.4543                 5.9085                 6.5786
 Frc consts  --      1.5055                 1.4961                 1.8218
 IR Inten    --      0.2756                13.9539                19.7036

                     25                     26                     27
                      A                      A                      A
 Frequencies --    701.0010               707.5592               730.3959
 Red. masses --      1.9647                 3.1292                 5.9772
 Frc consts  --      0.5688                 0.9230                 1.8787
 IR Inten    --     36.5380                25.5464                38.4431

                     28                     29                     30
                      A                      A                      A
 Frequencies --    759.0076               788.3786               834.1643
 Red. masses --      5.4532                 1.7675                 1.8595
 Frc consts  --      1.8509                 0.6473                 0.7623
 IR Inten    --     86.3240                58.7282                88.3410

                     31                     32                     33
                      A                      A                      A
 Frequencies --    842.5490               862.2757               949.1212
 Red. masses --      3.1024                 1.2538                 6.8667
 Frc consts  --      1.2976                 0.5492                 3.6445
 IR Inten    --    239.1041                 0.1167                40.1526

                     34                     35                     36
                      A                      A                      A
 Frequencies --    956.1934               988.6353              1014.9879
 Red. masses --      1.3939                 1.3576                 1.4246
 Frc consts  --      0.7509                 0.7818                 0.8647
 IR Inten    --      2.7378                 0.0233               118.5627

                     37                     38                     39
                      A                      A                      A
 Frequencies --   1017.4005              1021.2801              1024.0581
 Red. masses --      4.6870                 1.2907                 1.3374
 Frc consts  --      2.8584                 0.7932                 0.8263
 IR Inten    --      7.4988                 0.0806                23.7739

                     40                     41                     42
                      A                      A                      A
 Frequencies --   1037.3637              1046.0981              1065.8434
 Red. masses --      4.8365                 2.7189                 1.7846
 Frc consts  --      3.0665                 1.7531                 1.1945
 IR Inten    --     22.1627                 9.1110                37.3652

                     43                     44                     45
                      A                      A                      A
 Frequencies --   1112.3372              1127.1091              1157.1765
 Red. masses --      1.5838                 9.7200                 5.4842
 Frc consts  --      1.1546                 7.2752                 4.3268
 IR Inten    --     29.3052               385.2755                15.7703

                     46                     47                     48
                      A                      A                      A
 Frequencies --   1190.9122              1205.3518              1230.9162
 Red. masses --      1.1147                 1.1583                 1.8442
 Frc consts  --      0.9314                 0.9915                 1.6463
 IR Inten    --      4.5725                23.5333                20.0299

                     49                     50                     51
                      A                      A                      A
 Frequencies --   1270.7139              1323.6319              1350.2940
 Red. masses --      2.8756                 6.6987                 2.0751
 Frc consts  --      2.7357                 6.9148                 2.2291
 IR Inten    --     10.4132               204.8543               113.5598

                     52                     53                     54
                      A                      A                      A
 Frequencies --   1371.6769              1382.9610              1397.8982
 Red. masses --      2.7940                 1.8980                 1.1987
 Frc consts  --      3.0973                 2.1388                 1.3801
 IR Inten    --      5.7201               125.6362                33.0147

                     55                     56                     57
                      A                      A                      A
 Frequencies --   1434.5970              1476.5901              1483.2023
 Red. masses --      1.9485                 1.0487                 1.0653
 Frc consts  --      2.3627                 1.3471                 1.3808
 IR Inten    --    503.3053                 6.3017                 9.3475

                     58                     59                     60
                      A                      A                      A
 Frequencies --   1493.5105              1517.7688              1538.7791
 Red. masses --      2.2816                 2.5656                 2.4293
 Frc consts  --      2.9985                 3.4821                 3.3891
 IR Inten    --     18.0960               535.6491                78.2291

                     61                     62                     63
                      A                      A                      A
 Frequencies --   1603.9023              1636.8913              1648.3815
 Red. masses --      5.7263                 5.1555                 6.1916
 Frc consts  --      8.6792                 8.1388                 9.9122
 IR Inten    --     19.8146               599.9153               598.3258

                     64                     65                     66
                      A                      A                      A
 Frequencies --   1660.3179              3109.4934              3212.6555
 Red. masses --      5.5915                 1.0290                 1.1073
 Frc consts  --      9.0816                 5.8621                 6.7335
 IR Inten    --     45.9785                 0.9823                 1.9587

                     67                     68                     69
                      A                      A                      A
 Frequencies --   3216.2563              3223.4069              3226.7159
 Red. masses --      1.0864                 1.0888                 1.1095
 Frc consts  --      6.6212                 6.6655                 6.8062
 IR Inten    --      0.1627                 4.8835                 0.7589

                     70                     71                     72
                      A                      A                      A
 Frequencies --   3230.7899              3237.6604              3246.3467
 Red. masses --      1.0925                 1.0960                 1.0954
 Frc consts  --      6.7189                 6.7689                 6.8016
 IR Inten    --     28.2066                30.8977                12.0285

                     73                     74                     75
                      A                      A                      A
 Frequencies --   3357.1123              3491.3874              3546.3557
 Red. masses --      1.0986                 1.0780                 1.0871
 Frc consts  --      7.2950                 7.7425                 8.0553
 IR Inten    --     28.9041               298.8811               753.5699

 - Thermochemistry -
 -------------------
 Temperature   298.150 Kelvin.  Pressure   1.00000 Atm.
 Atom     1 has atomic number  8 and mass  15.99491

 Molecular mass:   239.04904 amu.
 Principal axes and moments of inertia in atomic units:
                           1         2         3
     Eigenvalues --  1367.358588654.004639576.84409
           X            0.99991  -0.01262  -0.00546
           Y            0.01286   0.99888   0.04547
           Z            0.00488  -0.04554   0.99895
 This molecule is an asymmetric top.
 Rotational symmetry number  1.
 Warning -- assumption of classical behavior for rotation
           may cause significant error
 Rotational temperatures (Kelvin)      0.06334     0.01001     0.00904
 Rotational constants (GHZ):           1.31987     0.20854     0.18845
 Zero-point vibrational energy     544260.4 (Joules/Mol)
                                  130.08135 (Kcal/Mol)
 Warning -- explicit consideration of  21 degrees of freedom as
           vibrations may cause significant error
 Vibrational temperatures:     51.14    53.88    90.81   112.59   134.31
          (Kelvin)            222.18   306.22   354.42   364.56   397.03
                              419.97   430.17   473.81   547.35   590.04
                              608.77   622.97   661.32   688.08   710.36
                              740.13   905.28   943.21   986.40  1008.58
                             1018.02  1050.88  1092.04  1134.30  1200.18
                             1212.24  1240.62  1365.57  1375.75  1422.43
                             1460.34  1463.81  1469.39  1473.39  1492.54
                             1505.10  1533.51  1600.41  1621.66  1664.92
                             1713.46  1734.23  1771.01  1828.27  1904.41
                             1942.77  1973.54  1989.77  2011.26  2064.07
                             2124.48  2134.00  2148.83  2183.73  2213.96
                             2307.66  2355.12  2371.65  2388.83  4473.87
                             4622.29  4627.48  4637.76  4642.52  4648.39
                             4658.27  4670.77  4830.14  5023.33  5102.41

 Zero-point correction=                           0.207298 (Hartree/Particle)
 Thermal correction to Energy=                    0.221817
 Thermal correction to Enthalpy=                  0.222761
 Thermal correction to Gibbs Free Energy=         0.164408
 Sum of electronic and zero-point Energies=          -1120.591976
 Sum of electronic and thermal Energies=             -1120.577457
 Sum of electronic and thermal Enthalpies=           -1120.576512
 Sum of electronic and thermal Free Energies=        -1120.634866

                     E (Thermal)             CV                S
                      KCal/Mol        Cal/Mol-Kelvin    Cal/Mol-Kelvin
 Total                  139.192             55.370            122.815
 Electronic               0.000              0.000              0.000
 Translational            0.889              2.981             42.316
 Rotational               0.889              2.981             33.094
 Vibrational            137.415             49.408             47.406
 Vibration     1          0.594              1.982              5.493
 Vibration     2          0.594              1.982              5.390
 Vibration     3          0.597              1.972              4.357
 Vibration     4          0.600              1.964              3.934
 Vibration     5          0.602              1.954              3.589
 Vibration     6          0.620              1.898              2.617
 Vibration     7          0.644              1.821              2.019
 Vibration     8          0.661              1.769              1.757
 Vibration     9          0.665              1.757              1.707
 Vibration    10          0.678              1.718              1.559
 Vibration    11          0.687              1.689              1.463
 Vibration    12          0.692              1.676              1.423
 Vibration    13          0.712              1.617              1.263
 Vibration    14          0.750              1.512              1.037
 Vibration    15          0.774              1.448              0.926
 Vibration    16          0.785              1.420              0.881
 Vibration    17          0.794              1.398              0.849
 Vibration    18          0.818              1.340              0.767
 Vibration    19          0.835              1.298              0.715
 Vibration    20          0.849              1.264              0.674
 Vibration    21          0.869              1.218              0.623

                           ! Non-Optimized Parameters !
 Normal termination of Gaussian 16 at Thu Sep 24 05:03:01 2020.

 ----------------------------------------------------------------------
 #p b3lyp/6-31G(d) scrf=(iefpcm,read,solvent=water) geom=allcheck guess
 =read
 ----------------------------------------------------------------------

 Structure from the checkpoint file:  "SM41_m1.b.6.pdb.xyz.mst.b.w.chk"
 -------------------
 SM41_m1.b.6.pdb.xyz
 -------------------
 Charge =  1 Multiplicity = 1

 SCF Done:  E(RB3LYP) =  -1120.79927954     A.U. after    7 cycles
 Normal termination of Gaussian 16 at Thu Sep 24 05:03:30 2020.

 -----------------------------
 #p B3LYP/6-31G* geom=allcheck
 -----------------------------

 Structure from the checkpoint file:  "SM41_m1.b.6.pdb.xyz.mst.b.w.chk"
 -------------------
 SM41_m1.b.6.pdb.xyz
 -------------------
 Charge =  1 Multiplicity = 1

 SCF Done:  E(RB3LYP) =  -1120.69329158     A.U. after   16 cycles
 Normal termination of Gaussian 16 at Thu Sep 24 05:04:03 2020.
 Gaussian 16:  ES64L-G16RevB.01 20-Dec-2017

 ----------------------------------------------------------------------
 #p mp2/aug-cc-pVDZ scf=(MaxCycle=2000,NoVarAcc,NoIncFock) maxdisk=120G
 B geom=allcheck
 ----------------------------------------------------------------------

 Structure from the checkpoint file:  "SM41_m1.b.6.pdb.xyz.mst.b.w.chk"
 -------------------
 SM41_m1.b.6.pdb.xyz
 -------------------
 Charge =  1 Multiplicity = 1

                         Standard orientation:
 ---------------------------------------------------------------------
 Center     Atomic      Atomic             Coordinates (Angstroms)
 Number     Number       Type             X           Y           Z
 ---------------------------------------------------------------------
      1          8           0       -4.619207   -0.135246   -0.739884
      2         16           0       -3.356573   -0.504707   -0.106123
      3          7           0       -2.387174    0.902476   -0.258930
      4          6           0       -1.033967    0.936286   -0.141658
      5          7           0       -0.379653    2.088894    0.010763
      6          8           0        0.973384    1.875771    0.032884
      7          6           0        1.144983    0.530522   -0.055003
      8          6           0        2.509571    0.038696   -0.016960
      9          6           0        3.590299    0.928330    0.104144
     10          6           0        4.890354    0.434479    0.138822
     11          6           0        5.121158   -0.940841    0.053445
     12          6           0        4.047683   -1.827705   -0.067493
     13          6           0        2.744556   -1.343924   -0.102788
     14          6           0       -0.070260   -0.097120   -0.166752
     15          6           0       -3.597531   -0.693701    1.657540
     16          8           0       -2.555826   -1.616322   -0.617248
     17          1           0        3.406479    1.993443    0.170248
     18          1           0        5.723603    1.121569    0.232706
     19          1           0        6.136322   -1.321279    0.081277
     20          1           0        4.226604   -2.894764   -0.133707
     21          1           0        1.911225   -2.030722   -0.196158
     22          1           0       -0.272249   -1.147613   -0.268186
     23          1           0       -4.090563    0.200837    2.035757
     24          1           0       -2.628491   -0.847187    2.131249
     25          1           0       -4.233835   -1.570184    1.787711
     26          1           0       -2.903224    1.781930   -0.187667
     27          1           0       -0.670800    3.065950   -0.043889
 ---------------------------------------------------------------------

 SCF Done:  E(RHF) =  -1115.83403436     A.U. after   16 cycles
 E2 =    -0.2430059571D+01 EUMP2 =    -0.11182640939267D+04

 The electronic state is 1-A.
 Alpha  occ. eigenvalues --  -92.38271 -20.85907 -20.70931 -20.70432 -15.86985
 Alpha  occ. eigenvalues --  -15.81023 -11.56970 -11.52790 -11.42726 -11.41479
 Alpha  occ. eigenvalues --  -11.40060 -11.39125 -11.38950 -11.38077 -11.37021
 Alpha  occ. eigenvalues --  -11.36988  -9.35014  -7.03545  -7.03517  -7.03347
 Alpha  occ. eigenvalues --   -1.71859  -1.61172  -1.48855  -1.47591  -1.36941
 Alpha  occ. eigenvalues --   -1.30864  -1.27336  -1.18999  -1.17495  -1.15648
 Alpha  occ. eigenvalues --   -1.06911  -1.04915  -1.01193  -0.98118  -0.96272
 Alpha  occ. eigenvalues --   -0.93839  -0.88634  -0.87664  -0.86626  -0.85441
 Alpha  occ. eigenvalues --   -0.82300  -0.80495  -0.79519  -0.78801  -0.77564
 Alpha  occ. eigenvalues --   -0.75371  -0.74931  -0.73917  -0.72772  -0.72330
 Alpha  occ. eigenvalues --   -0.72273  -0.65816  -0.65144  -0.64355  -0.63926
 Alpha  occ. eigenvalues --   -0.62929  -0.61459  -0.61060  -0.60177  -0.56378
 Alpha  occ. eigenvalues --   -0.47028  -0.46575
 Alpha virt. eigenvalues --   -0.09986  -0.08593  -0.06049  -0.05584  -0.04285
 Alpha virt. eigenvalues --   -0.03730  -0.03145  -0.02833  -0.02586  -0.01987
 Alpha virt. eigenvalues --   -0.01607  -0.01017  -0.00628  -0.00116   0.00005

 Mulliken charges:
               1
     1  O   -1.061072
     2  S    2.654691
     3  N   -0.795408
     4  C   -0.009138
     5  N   -0.019545
     6  O   -1.058970
     7  C   -0.125734
     8  C    1.700771
     9  C    0.266372
    10  C    0.285741
    11  C    0.496166
    12  C    0.150010
    13  C    0.489970
    14  C    2.117128
    15  C    0.112910
    16  O   -1.138697
    17  H   -0.660460
    18  H   -0.424090
    19  H   -0.410300
    20  H   -0.466334
    21  H   -0.555700
    22  H   -0.627699
    23  H    0.040916
    24  H    0.014199
    25  H    0.084530
    26  H   -0.078628
    27  H    0.018372
 Sum of Mulliken charges =   1.00000

 Dipole moment (field-independent basis, Debye):
    X=              1.7298    Y=              4.6349    Z=              4.2196  Tot=              6.5023
 Quadrupole moment (field-independent basis, Debye-Ang):
   XX=            -54.3570   YY=            -74.3769   ZZ=            -99.1412
   XY=            -11.7444   XZ=            -16.9136   YZ=             -3.7585

 Normal termination of Gaussian 16 at Thu Sep 24 05:28:51 2020.
