 Gaussian 16, Revision B.01,

 ----------------------------------------------------------------------
 #p b3lyp/6-31G(d) opt freq NoSymm scf=(MaxCycle=2000,NoVarAcc,NoIncFoc
 k) scrf=(iefpcm,read,solvent=water)
 ----------------------------------------------------------------------

 -------------------
 SM41_m1.a.8.pdb.xyz
 -------------------
 Symbolic Z-matrix:
 Charge = -1 Multiplicity = 1

 SCF Done:  E(RB3LYP) =  -1119.88831722     A.U. after   13 cycles
 SCF Done:  E(RB3LYP) =  -1119.88803310     A.U. after   10 cycles
 SCF Done:  E(RB3LYP) =  -1119.88819448     A.U. after    9 cycles
 SCF Done:  E(RB3LYP) =  -1119.88831311     A.U. after   10 cycles
 SCF Done:  E(RB3LYP) =  -1119.88831849     A.U. after    9 cycles
 SCF Done:  E(RB3LYP) =  -1119.88811583     A.U. after   11 cycles
 SCF Done:  E(RB3LYP) =  -1119.88819127     A.U. after    9 cycles
 SCF Done:  E(RB3LYP) =  -1119.88831075     A.U. after   10 cycles
 SCF Done:  E(RB3LYP) =  -1119.88831811     A.U. after    9 cycles
 SCF Done:  E(RB3LYP) =  -1119.88831857     A.U. after    8 cycles
 SCF Done:  E(RB3LYP) =  -1119.88831774     A.U. after    9 cycles
 SCF Done:  E(RB3LYP) =  -1119.88818975     A.U. after   10 cycles
 SCF Done:  E(RB3LYP) =  -1119.88817763     A.U. after    8 cycles
 SCF Done:  E(RB3LYP) =  -1119.88830839     A.U. after   10 cycles
 SCF Done:  E(RB3LYP) =  -1119.88831763     A.U. after    9 cycles
 SCF Done:  E(RB3LYP) =  -1119.88818035     A.U. after   10 cycles
 Optimization completed.
    -- Stationary point found.
 Normal termination of Gaussian 16 at Thu Sep 24 05:35:59 2020.

 --------------------------------------------------------------------
 #P Geom=AllCheck Guess=TCheck SCRF=Check GenChk RB3LYP/6-31G(d) Freq
 --------------------------------------------------------------------

 Structure from the checkpoint file:  "SM41_m1.a.8.pdb.xyz.mst.a.w.chk"
 -------------------
 SM41_m1.a.8.pdb.xyz
 -------------------
 Charge = -1 Multiplicity = 1

 SCF Done:  E(RB3LYP) =  -1119.88818035     A.U. after    1 cycles

  Exact polarizability: 306.567   5.977 203.123  -7.487  11.541  92.921
 Approx polarizability: 326.885   5.384 254.483 -11.088  19.242 108.770

                      1                      2                      3
                      A                      A                      A
 Frequencies --     30.6905                42.8859                67.2222
 Red. masses --      4.0394                 5.1898                 6.8642
 Frc consts  --      0.0022                 0.0056                 0.0183
 IR Inten    --      1.4506                 5.4376                 2.1727

                      4                      5                      6
                      A                      A                      A
 Frequencies --     73.9559                94.3106               155.4818
 Red. masses --      5.5183                 5.2837                 5.9161
 Frc consts  --      0.0178                 0.0277                 0.0843
 IR Inten    --      8.2841                 4.5586                 8.9622

                      7                      8                      9
                      A                      A                      A
 Frequencies --    216.3939               241.9397               272.9722
 Red. masses --      4.6655                 1.1658                 4.9161
 Frc consts  --      0.1287                 0.0402                 0.2158
 IR Inten    --      2.9192                 1.0848                 0.1380

                     10                     11                     12
                      A                      A                      A
 Frequencies --    296.9409               315.8827               336.4077
 Red. masses --      4.5828                 6.3187                 4.8393
 Frc consts  --      0.2381                 0.3715                 0.3227
 IR Inten    --      0.8399                 0.4066                 0.1993

                     13                     14                     15
                      A                      A                      A
 Frequencies --    372.0673               411.7413               412.5630
 Red. masses --      8.1596                 9.5414                 3.0016
 Frc consts  --      0.6655                 0.9530                 0.3010
 IR Inten    --      2.1559                 9.6560                 0.1118

                     16                     17                     18
                      A                      A                      A
 Frequencies --    464.9694               487.7999               496.6877
 Red. masses --      5.8585                 8.2986                 4.0670
 Frc consts  --      0.7463                 1.1634                 0.5911
 IR Inten    --      6.2136                79.3787                 6.1176

                     19                     20                     21
                      A                      A                      A
 Frequencies --    540.6494               631.0408               662.2086
 Red. masses --      8.3758                 6.4423                 7.3298
 Frc consts  --      1.4425                 1.5115                 1.8938
 IR Inten    --    148.2804                 0.0171                 1.9981

                     22                     23                     24
                      A                      A                      A
 Frequencies --    676.6801               704.9793               707.2836
 Red. masses --      7.1874                 3.0387                 2.4997
 Frc consts  --      1.9390                 0.8898                 0.7368
 IR Inten    --     34.0357                64.8738                 3.2179

                     25                     26                     27
                      A                      A                      A
 Frequencies --    720.5029               752.3525               783.8108
 Red. masses --      4.9195                 7.0520                 1.7464
 Frc consts  --      1.5047                 2.3518                 0.6322
 IR Inten    --      3.7612               145.4449                64.1063

                     28                     29                     30
                      A                      A                      A
 Frequencies --    822.7339               864.4011               914.3182
 Red. masses --      1.4685                 1.2508                 8.6450
 Frc consts  --      0.5857                 0.5507                 4.2580
 IR Inten    --     35.9864                 0.2611                27.5929

                     31                     32                     33
                      A                      A                      A
 Frequencies --    931.3226               942.4443               956.6976
 Red. masses --      9.9500                 1.3912                 8.6863
 Frc consts  --      5.0848                 0.7280                 4.6842
 IR Inten    --    183.3815                 4.1006                52.6249

                     34                     35                     36
                      A                      A                      A
 Frequencies --    981.5233               992.7055               997.1151
 Red. masses --      1.3492                 1.4902                 1.3855
 Frc consts  --      0.7658                 0.8653                 0.8116
 IR Inten    --      0.0039                73.3887                 8.4537

                     37                     38                     39
                      A                      A                      A
 Frequencies --   1008.9715              1016.3707              1032.4580
 Red. masses --      1.2600                 6.0917                 2.3418
 Frc consts  --      0.7558                 3.7076                 1.4708
 IR Inten    --      0.3104                 0.3965                26.1981

                     40                     41                     42
                      A                      A                      A
 Frequencies --   1054.7426              1086.2482              1095.4081
 Red. masses --      2.3761                 3.4491                 8.4769
 Frc consts  --      1.5574                 2.3978                 5.9929
 IR Inten    --     29.4525               334.2249               373.3569

                     43                     44                     45
                      A                      A                      A
 Frequencies --   1103.8125              1184.1507              1193.1612
 Red. masses --      1.5400                 1.1558                 1.1960
 Frc consts  --      1.1055                 0.9548                 1.0032
 IR Inten    --      3.9238                 6.2557                 9.8682

                     46                     47                     48
                      A                      A                      A
 Frequencies --   1211.7846              1226.9825              1297.0738
 Red. masses --      5.2689                 2.8722                 4.2483
 Frc consts  --      4.5585                 2.5477                 4.2110
 IR Inten    --    302.8040               260.5797                14.2704

                     49                     50                     51
                      A                      A                      A
 Frequencies --   1350.3878              1365.5252              1384.1261
 Red. masses --      2.7251                 2.4771                 1.2181
 Frc consts  --      2.9278                 2.7214                 1.3749
 IR Inten    --     49.3219                 1.8989                29.5762

                     52                     53                     54
                      A                      A                      A
 Frequencies --   1436.3950              1476.0802              1487.3575
 Red. masses --      7.1526                 4.4567                 1.0735
 Frc consts  --      8.6949                 5.7212                 1.3992
 IR Inten    --    326.0479               510.7672                15.0822

                     55                     56                     57
                      A                      A                      A
 Frequencies --   1488.5762              1497.4673              1539.5349
 Red. masses --      1.0964                 2.4817                 2.4470
 Frc consts  --      1.4314                 3.2787                 3.4171
 IR Inten    --     18.1627               166.4344               155.6239

                     58                     59                     60
                      A                      A                      A
 Frequencies --   1626.4608              1651.5086              1666.5765
 Red. masses --      5.8650                 6.8247                 6.3537
 Frc consts  --      9.1412                10.9672                10.3974
 IR Inten    --    135.7608               108.9117                38.5814

                     61                     62                     63
                      A                      A                      A
 Frequencies --   3097.3849              3192.6158              3201.7319
 Red. masses --      1.0303                 1.1067                 1.1070
 Frc consts  --      5.8239                 6.6460                 6.6862
 IR Inten    --      5.0169                 6.8457                 6.1617

                     64                     65                     66
                      A                      A                      A
 Frequencies --   3204.8155              3210.7619              3219.4545
 Red. masses --      1.0857                 1.0885                 1.0928
 Frc consts  --      6.5701                 6.6112                 6.6737
 IR Inten    --      3.8944                 6.4988                42.0531

                     67                     68                     69
                      A                      A                      A
 Frequencies --   3228.8018              3239.3912              3326.7405
 Red. masses --      1.0962                 1.0938                 1.0972
 Frc consts  --      6.7332                 6.7625                 7.1547
 IR Inten    --     44.4332                12.2696                 6.7837

 - Thermochemistry -
 -------------------
 Temperature   298.150 Kelvin.  Pressure   1.00000 Atm.
 Atom     1 has atomic number  8 and mass  15.99491

 Molecular mass:   237.03339 amu.
 Principal axes and moments of inertia in atomic units:
                           1         2         3
     Eigenvalues --  1340.358628362.386359270.81339
           X            0.99972   0.00720   0.02271
           Y           -0.00554   0.99735  -0.07248
           Z           -0.02318   0.07233   0.99711
 This molecule is an asymmetric top.
 Rotational symmetry number  1.
 Warning -- assumption of classical behavior for rotation
           may cause significant error
 Rotational temperatures (Kelvin)      0.06462     0.01036     0.00934
 Rotational constants (GHZ):           1.34646     0.21582     0.19467
 Zero-point vibrational energy     477169.7 (Joules/Mol)
                                  114.04629 (Kcal/Mol)
 Warning -- explicit consideration of  19 degrees of freedom as
           vibrations may cause significant error
 Vibrational temperatures:     44.16    61.70    96.72   106.41   135.69
          (Kelvin)            223.70   311.34   348.10   392.75   427.23
                              454.48   484.02   535.32   592.40   593.59
                              668.99   701.84   714.62   777.87   907.93
                              952.77   973.59  1014.31  1017.62  1036.64
                             1082.47  1127.73  1183.73  1243.68  1315.50
                             1339.97  1355.97  1376.47  1412.19  1428.28
                             1434.63  1451.69  1462.33  1485.48  1517.54
                             1562.87  1576.05  1588.14  1703.73  1716.69
                             1743.49  1765.35  1866.20  1942.91  1964.69
                             1991.45  2066.65  2123.75  2139.98  2141.73
                             2154.52  2215.05  2340.11  2376.15  2397.83
                             4456.45  4593.46  4606.58  4611.01  4619.57
                             4632.08  4645.53  4660.76  4786.44

 Zero-point correction=                           0.181744 (Hartree/Particle)
 Thermal correction to Energy=                    0.195481
 Thermal correction to Enthalpy=                  0.196426
 Thermal correction to Gibbs Free Energy=         0.139399
 Sum of electronic and zero-point Energies=          -1119.706436
 Sum of electronic and thermal Energies=             -1119.692699
 Sum of electronic and thermal Enthalpies=           -1119.691755
 Sum of electronic and thermal Free Energies=        -1119.748782

                     E (Thermal)             CV                S
                      KCal/Mol        Cal/Mol-Kelvin    Cal/Mol-Kelvin
 Total                  122.666             52.276            120.023
 Electronic               0.000              0.000              0.000
 Translational            0.889              2.981             42.291
 Rotational               0.889              2.981             33.007
 Vibrational            120.889             46.314             44.725
 Vibration     1          0.594              1.984              5.784
 Vibration     2          0.595              1.980              5.121
 Vibration     3          0.598              1.970              4.233
 Vibration     4          0.599              1.966              4.045
 Vibration     5          0.603              1.953              3.569
 Vibration     6          0.620              1.897              2.604
 Vibration     7          0.645              1.816              1.989
 Vibration     8          0.658              1.776              1.789
 Vibration     9          0.676              1.723              1.577
 Vibration    10          0.691              1.679              1.434
 Vibration    11          0.703              1.643              1.331
 Vibration    12          0.717              1.603              1.229
 Vibration    13          0.744              1.530              1.071
 Vibration    14          0.776              1.445              0.920
 Vibration    15          0.776              1.443              0.918
 Vibration    16          0.822              1.328              0.752
 Vibration    17          0.844              1.277              0.689
 Vibration    18          0.852              1.257              0.666
 Vibration    19          0.896              1.160              0.564

 Optimization completed.
    -- Stationary point found.
 Normal termination of Gaussian 16 at Thu Sep 24 05:41:28 2020.

 ----------------------------------------------------------------------
 #p b3lyp/6-31G(d) scrf=(iefpcm,read,solvent=water) geom=allcheck guess
 =read
 ----------------------------------------------------------------------

 Structure from the checkpoint file:  "SM41_m1.a.8.pdb.xyz.mst.a.w.chk"
 -------------------
 SM41_m1.a.8.pdb.xyz
 -------------------
 Charge = -1 Multiplicity = 1

 SCF Done:  E(RB3LYP) =  -1119.88818187     A.U. after    6 cycles
 Normal termination of Gaussian 16 at Thu Sep 24 05:41:52 2020.

 -----------------------------
 #p B3LYP/6-31G* geom=allcheck
 -----------------------------

 Structure from the checkpoint file:  "SM41_m1.a.8.pdb.xyz.mst.a.w.chk"
 -------------------
 SM41_m1.a.8.pdb.xyz
 -------------------
 Charge = -1 Multiplicity = 1

 SCF Done:  E(RB3LYP) =  -1119.79049447     A.U. after   15 cycles
 Normal termination of Gaussian 16 at Thu Sep 24 05:42:23 2020.
 Gaussian 16:  ES64L-G16RevB.01 20-Dec-2017

 ----------------------------------------------------------------------
 #p mp2/aug-cc-pVDZ scf=(MaxCycle=2000,NoVarAcc,NoIncFock) maxdisk=120G
 B geom=allcheck
 ----------------------------------------------------------------------

 Structure from the checkpoint file:  "SM41_m1.a.8.pdb.xyz.mst.a.w.chk"
 -------------------
 SM41_m1.a.8.pdb.xyz
 -------------------
 Charge = -1 Multiplicity = 1

                         Standard orientation:
 ---------------------------------------------------------------------
 Center     Atomic      Atomic             Coordinates (Angstroms)
 Number     Number       Type             X           Y           Z
 ---------------------------------------------------------------------
      1          8           0        2.652209   -1.503035   -0.879242
      2         16           0        3.275139   -0.381516   -0.118310
      3          7           0        2.487228    1.016127   -0.213727
      4          6           0        1.116244    1.014860   -0.121448
      5          7           0        0.503510    2.195973    0.000449
      6          8           0       -0.883898    1.902515    0.042201
      7          6           0       -1.058152    0.563492   -0.045053
      8          6           0       -2.429143    0.061777   -0.017334
      9          6           0       -3.513456    0.945713    0.100337
     10          6           0       -4.818125    0.457343    0.125280
     11          6           0       -5.057252   -0.915683    0.032990
     12          6           0       -3.981687   -1.800702   -0.084393
     13          6           0       -2.676587   -1.317427   -0.109505
     14          6           0        0.152142   -0.052248   -0.151610
     15          6           0        3.251948   -0.899840    1.612174
     16          8           0        4.692805   -0.100109   -0.453064
     17          1           0       -3.323989    2.009759    0.171496
     18          1           0       -5.648607    1.149387    0.216664
     19          1           0       -6.073670   -1.294014    0.052356
     20          1           0       -4.160142   -2.868271   -0.156701
     21          1           0       -1.844084   -2.006533   -0.200730
     22          1           0        0.362187   -1.101241   -0.266899
     23          1           0        2.217993   -1.045561    1.927932
     24          1           0        3.724558   -0.125486    2.216402
     25          1           0        3.803841   -1.837163    1.697616
 ---------------------------------------------------------------------

 SCF Done:  E(RHF) =  -1114.93156224     A.U. after   18 cycles
 E2 =    -0.2464358441D+01 EUMP2 =    -0.11173959206825D+04

 The electronic state is 1-A.
 Alpha  occ. eigenvalues --  -92.04954 -20.50406 -20.38815 -20.38174 -15.45970
 Alpha  occ. eigenvalues --  -15.38970 -11.19977 -11.17932 -11.17412 -11.17139
 Alpha  occ. eigenvalues --  -11.16983 -11.16916 -11.16684 -11.16381 -11.13758
 Alpha  occ. eigenvalues --  -11.10933  -9.01707  -6.70262  -6.70180  -6.70123
 Alpha  occ. eigenvalues --   -1.34025  -1.27757  -1.15541  -1.08572  -1.07487
 Alpha  occ. eigenvalues --   -0.98591  -0.96090  -0.94218  -0.90820  -0.87792
 Alpha  occ. eigenvalues --   -0.77056  -0.75562  -0.70544  -0.67616  -0.63898
 Alpha  occ. eigenvalues --   -0.60881  -0.57596  -0.55211  -0.54509  -0.52033
 Alpha  occ. eigenvalues --   -0.51508  -0.51039  -0.50731  -0.49684  -0.48266
 Alpha  occ. eigenvalues --   -0.46130  -0.44642  -0.43447  -0.42934  -0.42598
 Alpha  occ. eigenvalues --   -0.41024  -0.35914  -0.34199  -0.32822  -0.32354
 Alpha  occ. eigenvalues --   -0.30392  -0.29523  -0.29286  -0.26345  -0.25457
 Alpha  occ. eigenvalues --   -0.20726  -0.18291
 Alpha virt. eigenvalues --    0.08873   0.10007   0.11066   0.12419   0.13457
 Alpha virt. eigenvalues --    0.14129   0.14620   0.15262   0.16333   0.17788
 Alpha virt. eigenvalues --    0.17993   0.18164   0.18274   0.19590   0.20257

 Mulliken charges:
               1
     1  O   -1.301073
     2  S    2.808292
     3  N   -1.250564
     4  C   -0.031557
     5  N   -0.412528
     6  O   -1.135186
     7  C    0.330826
     8  C    1.382363
     9  C    0.354790
    10  C    0.254950
    11  C    0.491206
    12  C    0.027470
    13  C    0.515725
    14  C    1.585202
    15  C    0.052507
    16  O   -1.227023
    17  H   -0.662740
    18  H   -0.455631
    19  H   -0.456644
    20  H   -0.502181
    21  H   -0.554201
    22  H   -0.717867
    23  H   -0.062117
    24  H    0.000190
    25  H   -0.034207
 Sum of Mulliken charges =  -1.00000

 Dipole moment (field-independent basis, Debye):
    X=            -12.1482    Y=             -4.3786    Z=              3.9913  Tot=             13.5160
 Quadrupole moment (field-independent basis, Debye-Ang):
   XX=           -155.2753   YY=           -118.7178   ZZ=           -108.5550
   XY=             -1.7992   XZ=             14.3309   YZ=             -3.3679

 Normal termination of Gaussian 16 at Thu Sep 24 05:58:07 2020.
