 Gaussian 16, Revision B.01,

 ----------------------------------------------------------------------
 #p b3lyp/6-31G(d) opt freq NoSymm scf=(MaxCycle=2000,NoVarAcc,NoIncFoc
 k) scrf=(iefpcm,read,solvent=water)
 ----------------------------------------------------------------------

 -------------------
 SM41_m1.a.4.pdb.xyz
 -------------------
 Symbolic Z-matrix:
 Charge = -1 Multiplicity = 1

 SCF Done:  E(RB3LYP) =  -1119.88976455     A.U. after   13 cycles
 SCF Done:  E(RB3LYP) =  -1119.88966184     A.U. after   10 cycles
 SCF Done:  E(RB3LYP) =  -1119.88960582     A.U. after   10 cycles
 SCF Done:  E(RB3LYP) =  -1119.88976274     A.U. after   10 cycles
 SCF Done:  E(RB3LYP) =  -1119.88976567     A.U. after    8 cycles
 SCF Done:  E(RB3LYP) =  -1119.88959112     A.U. after   10 cycles
 SCF Done:  E(RB3LYP) =  -1119.88961886     A.U. after    8 cycles
 SCF Done:  E(RB3LYP) =  -1119.88976383     A.U. after   10 cycles
 SCF Done:  E(RB3LYP) =  -1119.88976566     A.U. after    8 cycles
 SCF Done:  E(RB3LYP) =  -1119.88960836     A.U. after   10 cycles
 Optimization completed.
    -- Stationary point found.
 Normal termination of Gaussian 16 at Thu Sep 24 04:48:57 2020.

 --------------------------------------------------------------------
 #P Geom=AllCheck Guess=TCheck SCRF=Check GenChk RB3LYP/6-31G(d) Freq
 --------------------------------------------------------------------

 Structure from the checkpoint file:  "SM41_m1.a.4.pdb.xyz.mst.a.w.chk"
 -------------------
 SM41_m1.a.4.pdb.xyz
 -------------------
 Charge = -1 Multiplicity = 1

 SCF Done:  E(RB3LYP) =  -1119.88960836     A.U. after    1 cycles

  Exact polarizability: 319.868  -8.807 195.289  -1.196  -3.803  90.688
 Approx polarizability: 328.691 -15.595 252.131   1.200  -0.974 107.279

                      1                      2                      3
                      A                      A                      A
 Frequencies --     35.3318                37.9166                75.8317
 Red. masses --      4.2120                 6.8913                 5.9676
 Frc consts  --      0.0031                 0.0058                 0.0202
 IR Inten    --      3.2647                 2.1982                 1.0017

                      4                      5                      6
                      A                      A                      A
 Frequencies --     90.1622               107.5536               146.3486
 Red. masses --      5.8889                 5.5420                 6.2597
 Frc consts  --      0.0282                 0.0378                 0.0790
 IR Inten    --      9.0909                 4.7036                 0.3255

                      7                      8                      9
                      A                      A                      A
 Frequencies --    219.9986               246.8294               253.0220
 Red. masses --      4.7721                 1.3706                 3.0105
 Frc consts  --      0.1361                 0.0492                 0.1136
 IR Inten    --      2.1466                 2.6596                 7.9198

                     10                     11                     12
                      A                      A                      A
 Frequencies --    287.9072               311.8370               349.4590
 Red. masses --      4.5312                 4.8509                 5.6097
 Frc consts  --      0.2213                 0.2779                 0.4036
 IR Inten    --      5.6299                 4.1819                 6.3149

                     13                     14                     15
                      A                      A                      A
 Frequencies --    391.2635               411.6533               416.0266
 Red. masses --      7.5919                 3.0013                 8.6306
 Frc consts  --      0.6848                 0.2997                 0.8801
 IR Inten    --      2.5187                 0.0075                 6.0353

                     16                     17                     18
                      A                      A                      A
 Frequencies --    463.7953               493.3506               497.7689
 Red. masses --      6.5191                 5.7835                 5.2023
 Frc consts  --      0.8262                 0.8294                 0.7595
 IR Inten    --     37.8937                66.2084                17.9497

                     19                     20                     21
                      A                      A                      A
 Frequencies --    542.0755               631.3232               657.3384
 Red. masses --      6.3008                 6.4445                 7.2400
 Frc consts  --      1.0909                 1.5134                 1.8432
 IR Inten    --     70.1642                 0.0122                 1.2630

                     22                     23                     24
                      A                      A                      A
 Frequencies --    685.6679               703.8239               706.6602
 Red. masses --      6.6419                 4.4052                 2.0953
 Frc consts  --      1.8398                 1.2857                 0.6165
 IR Inten    --      4.0501                17.5753                52.1637

                     25                     26                     27
                      A                      A                      A
 Frequencies --    718.3417               764.0080               779.1285
 Red. masses --      3.7942                 9.3262                 1.5073
 Frc consts  --      1.1535                 3.2074                 0.5391
 IR Inten    --     16.3736               207.5086                92.6049

                     28                     29                     30
                      A                      A                      A
 Frequencies --    804.2342               865.6660               888.1055
 Red. masses --      1.9255                 1.2516                 9.2431
 Frc consts  --      0.7338                 0.5526                 4.2953
 IR Inten    --     13.9867                 0.0796               152.3430

                     31                     32                     33
                      A                      A                      A
 Frequencies --    925.2893               942.3480               957.1179
 Red. masses --     10.4376                 1.3877                 8.0188
 Frc consts  --      5.2651                 0.7261                 4.3280
 IR Inten    --     77.2898                 3.6592                21.1375

                     34                     35                     36
                      A                      A                      A
 Frequencies --    983.3492               994.3134              1003.0880
 Red. masses --      1.3477                 1.4674                 1.4480
 Frc consts  --      0.7678                 0.8548                 0.8584
 IR Inten    --      0.0730                61.1254                25.3375

                     37                     38                     39
                      A                      A                      A
 Frequencies --   1010.5956              1016.5853              1037.0885
 Red. masses --      1.2601                 6.0647                 2.3506
 Frc consts  --      0.7582                 3.6928                 1.4896
 IR Inten    --      0.2002                 0.1720                21.4477

                     40                     41                     42
                      A                      A                      A
 Frequencies --   1054.5889              1085.3662              1097.8339
 Red. masses --      2.4310                 3.9747                 5.9868
 Frc consts  --      1.5930                 2.7587                 4.2512
 IR Inten    --     11.1877               311.0495               481.1251

                     43                     44                     45
                      A                      A                      A
 Frequencies --   1107.3685              1187.9463              1201.0522
 Red. masses --      1.5728                 1.0941                 1.1615
 Frc consts  --      1.1363                 0.9097                 0.9871
 IR Inten    --     14.5927                 0.0724                15.1708

                     46                     47                     48
                      A                      A                      A
 Frequencies --   1215.1583              1232.1508              1294.9625
 Red. masses --     13.5498                 2.3159                 4.7359
 Frc consts  --     11.7882                 2.0716                 4.6791
 IR Inten    --    462.7217               107.7290                 5.5441

                     49                     50                     51
                      A                      A                      A
 Frequencies --   1349.1635              1367.2322              1373.4815
 Red. masses --      2.8224                 2.2509                 1.2185
 Frc consts  --      3.0269                 2.4791                 1.3543
 IR Inten    --     28.9422                 1.4404                25.4942

                     52                     53                     54
                      A                      A                      A
 Frequencies --   1434.0242              1479.5158              1484.8853
 Red. masses --      6.8806                 1.1814                 2.8799
 Frc consts  --      8.3366                 1.5237                 3.7412
 IR Inten    --    223.3120               100.2626               383.8695

                     55                     56                     57
                      A                      A                      A
 Frequencies --   1496.2764              1500.3712              1540.5680
 Red. masses --      1.3270                 1.9423                 2.3900
 Frc consts  --      1.7504                 2.5762                 3.3421
 IR Inten    --     17.6159               304.4337               163.2373

                     58                     59                     60
                      A                      A                      A
 Frequencies --   1627.5378              1651.4028              1667.5281
 Red. masses --      5.7796                 6.8121                 6.2158
 Frc consts  --      9.0200                10.9456                10.1835
 IR Inten    --    114.8040                98.0785                30.2507

                     61                     62                     63
                      A                      A                      A
 Frequencies --   3097.7749              3197.7430              3204.7593
 Red. masses --      1.0296                 1.1071                 1.0857
 Frc consts  --      5.8215                 6.6701                 6.5696
 IR Inten    --      7.9302                 6.2009                 3.0562

                     64                     65                     66
                      A                      A                      A
 Frequencies --   3205.7487              3210.2546              3218.2364
 Red. masses --      1.1072                 1.0884                 1.0924
 Frc consts  --      6.7041                 6.6090                 6.6661
 IR Inten    --      1.0715                 3.3873                43.2805

                     67                     68                     69
                      A                      A                      A
 Frequencies --   3228.1803              3235.6996              3303.7231
 Red. masses --      1.0958                 1.0947                 1.0982
 Frc consts  --      6.7282                 6.7528                 7.0621
 IR Inten    --     47.3695                12.9402                 0.9964

 - Thermochemistry -
 -------------------
 Temperature   298.150 Kelvin.  Pressure   1.00000 Atm.
 Atom     1 has atomic number  8 and mass  15.99491

 Molecular mass:   237.03339 amu.
 Principal axes and moments of inertia in atomic units:
                           1         2         3
     Eigenvalues --   926.527119730.59885**********
           X            0.99996   0.00772  -0.00363
           Y           -0.00750   0.99830   0.05772
           Z            0.00407  -0.05769   0.99833
 This molecule is an asymmetric top.
 Rotational symmetry number  1.
 Warning -- assumption of classical behavior for rotation
           may cause significant error
 Rotational temperatures (Kelvin)      0.09348     0.00890     0.00845
 Rotational constants (GHZ):           1.94786     0.18547     0.17611
 Zero-point vibrational energy     477326.4 (Joules/Mol)
                                  114.08374 (Kcal/Mol)
 Warning -- explicit consideration of  19 degrees of freedom as
           vibrations may cause significant error
 Vibrational temperatures:     50.83    54.55   109.10   129.72   154.75
          (Kelvin)            210.56   316.53   355.13   364.04   414.23
                              448.66   502.79   562.94   592.28   598.57
                              667.30   709.82   716.18   779.93   908.33
                              945.76   986.52  1012.65  1016.73  1033.53
                             1099.24  1120.99  1157.11  1245.50  1277.79
                             1331.28  1355.83  1377.08  1414.82  1430.60
                             1443.22  1454.02  1462.64  1492.14  1517.32
                             1561.60  1579.54  1593.26  1709.19  1728.05
                             1748.34  1772.79  1863.16  1941.15  1967.14
                             1976.13  2063.24  2128.69  2136.42  2152.81
                             2158.70  2216.53  2341.66  2376.00  2399.20
                             4457.01  4600.84  4610.93  4612.36  4618.84
                             4630.32  4644.63  4655.45  4753.32

 Zero-point correction=                           0.181804 (Hartree/Particle)
 Thermal correction to Energy=                    0.195476
 Thermal correction to Enthalpy=                  0.196420
 Thermal correction to Gibbs Free Energy=         0.139836
 Sum of electronic and zero-point Energies=          -1119.707804
 Sum of electronic and thermal Energies=             -1119.694132
 Sum of electronic and thermal Enthalpies=           -1119.693188
 Sum of electronic and thermal Free Energies=        -1119.749773

                     E (Thermal)             CV                S
                      KCal/Mol        Cal/Mol-Kelvin    Cal/Mol-Kelvin
 Total                  122.663             52.242            119.093
 Electronic               0.000              0.000              0.000
 Translational            0.889              2.981             42.291
 Rotational               0.889              2.981             32.891
 Vibrational            120.886             46.281             43.911
 Vibration     1          0.594              1.982              5.505
 Vibration     2          0.594              1.982              5.365
 Vibration     3          0.599              1.965              3.996
 Vibration     4          0.602              1.956              3.657
 Vibration     5          0.606              1.943              3.313
 Vibration     6          0.617              1.907              2.719
 Vibration     7          0.647              1.811              1.959
 Vibration     8          0.661              1.768              1.753
 Vibration     9          0.664              1.758              1.709
 Vibration    10          0.685              1.696              1.486
 Vibration    11          0.700              1.651              1.353
 Vibration    12          0.727              1.576              1.169
 Vibration    13          0.759              1.489              0.995
 Vibration    14          0.776              1.445              0.921
 Vibration    15          0.779              1.435              0.906
 Vibration    16          0.821              1.330              0.755
 Vibration    17          0.849              1.265              0.675
 Vibration    18          0.853              1.255              0.664
 Vibration    19          0.897              1.157              0.561

 Optimization completed.
    -- Stationary point found.
 Normal termination of Gaussian 16 at Thu Sep 24 04:54:30 2020.

 ----------------------------------------------------------------------
 #p b3lyp/6-31G(d) scrf=(iefpcm,read,solvent=water) geom=allcheck guess
 =read
 ----------------------------------------------------------------------

 Structure from the checkpoint file:  "SM41_m1.a.4.pdb.xyz.mst.a.w.chk"
 -------------------
 SM41_m1.a.4.pdb.xyz
 -------------------
 Charge = -1 Multiplicity = 1

 SCF Done:  E(RB3LYP) =  -1119.88957109     A.U. after    7 cycles
 Normal termination of Gaussian 16 at Thu Sep 24 04:55:02 2020.

 -----------------------------
 #p B3LYP/6-31G* geom=allcheck
 -----------------------------

 Structure from the checkpoint file:  "SM41_m1.a.4.pdb.xyz.mst.a.w.chk"
 -------------------
 SM41_m1.a.4.pdb.xyz
 -------------------
 Charge = -1 Multiplicity = 1

 SCF Done:  E(RB3LYP) =  -1119.78926785     A.U. after   15 cycles
 Normal termination of Gaussian 16 at Thu Sep 24 04:55:31 2020.
 Gaussian 16:  ES64L-G16RevB.01 20-Dec-2017

 ----------------------------------------------------------------------
 #p mp2/aug-cc-pVDZ scf=(MaxCycle=2000,NoVarAcc,NoIncFock) maxdisk=120G
 B geom=allcheck
 ----------------------------------------------------------------------

 Structure from the checkpoint file:  "SM41_m1.a.4.pdb.xyz.mst.a.w.chk"
 -------------------
 SM41_m1.a.4.pdb.xyz
 -------------------
 Charge = -1 Multiplicity = 1

                         Standard orientation:
 ---------------------------------------------------------------------
 Center     Atomic      Atomic             Coordinates (Angstroms)
 Number     Number       Type             X           Y           Z
 ---------------------------------------------------------------------
      1          8           0       -4.668200    1.136172   -0.003720
      2         16           0       -3.565287    0.147907   -0.114122
      3          7           0       -2.193507    0.990313   -0.005512
      4          6           0       -0.993864    0.329994   -0.028113
      5          7           0       -0.810126   -0.992448   -0.064009
      6          8           0        0.600536   -1.180477   -0.050589
      7          6           0        1.209170    0.030266   -0.009600
      8          6           0        2.669887    0.043696    0.002404
      9          6           0        3.364679    1.261414    0.087761
     10          6           0        4.756614    1.277309    0.096078
     11          6           0        5.474691    0.080548    0.019896
     12          6           0        4.789836   -1.133679   -0.064338
     13          6           0        3.396964   -1.154598   -0.073073
     14          6           0        0.269348    1.015149    0.007050
     15          6           0       -3.676019   -0.923555    1.332336
     16          8           0       -3.642608   -0.750787   -1.299942
     17          1           0        2.812142    2.193185    0.148933
     18          1           0        5.281992    2.224100    0.162653
     19          1           0        6.559467    0.095322    0.026303
     20          1           0        5.340748   -2.066471   -0.124187
     21          1           0        2.864048   -2.095575   -0.139784
     22          1           0        0.418791    2.082508    0.035804
     23          1           0       -3.695455   -0.301072    2.227235
     24          1           0       -2.802717   -1.575619    1.334093
     25          1           0       -4.594658   -1.506493    1.253156
 ---------------------------------------------------------------------

 SCF Done:  E(RHF) =  -1114.93022183     A.U. after   18 cycles
 E2 =    -0.2462951285D+01 EUMP2 =    -0.11173931731162D+04

 The electronic state is 1-A.
 Alpha  occ. eigenvalues --  -92.03790 -20.50550 -20.37191 -20.37118 -15.45991
 Alpha  occ. eigenvalues --  -15.38798 -11.20390 -11.18065 -11.17784 -11.17471
 Alpha  occ. eigenvalues --  -11.17345 -11.17217 -11.17125 -11.16679 -11.12157
 Alpha  occ. eigenvalues --  -11.11607  -9.00573  -6.69111  -6.69049  -6.68995
 Alpha  occ. eigenvalues --   -1.33999  -1.26441  -1.14051  -1.08856  -1.07557
 Alpha  occ. eigenvalues --   -0.98665  -0.95921  -0.94485  -0.91260  -0.86651
 Alpha  occ. eigenvalues --   -0.77429  -0.75889  -0.70785  -0.67908  -0.64171
 Alpha  occ. eigenvalues --   -0.60475  -0.57621  -0.55098  -0.54815  -0.52063
 Alpha  occ. eigenvalues --   -0.51767  -0.50854  -0.49742  -0.48897  -0.46988
 Alpha  occ. eigenvalues --   -0.45114  -0.44055  -0.43558  -0.43173  -0.42503
 Alpha  occ. eigenvalues --   -0.41453  -0.35702  -0.33541  -0.32645  -0.31198
 Alpha  occ. eigenvalues --   -0.29900  -0.29511  -0.27785  -0.26682  -0.24949
 Alpha  occ. eigenvalues --   -0.20880  -0.18652
 Alpha virt. eigenvalues --    0.08689   0.09746   0.10794   0.12735   0.13131
 Alpha virt. eigenvalues --    0.13795   0.14986   0.15590   0.16126   0.16638
 Alpha virt. eigenvalues --    0.17661   0.17888   0.17997   0.19403   0.19875

 Mulliken charges:
               1
     1  O   -1.222462
     2  S    2.747910
     3  N   -1.372503
     4  C   -0.103616
     5  N   -0.288034
     6  O   -1.086602
     7  C    0.242784
     8  C    1.354872
     9  C    0.541209
    10  C    0.004739
    11  C    0.522197
    12  C    0.217738
    13  C    0.433708
    14  C    1.524399
    15  C    0.022845
    16  O   -1.254532
    17  H   -0.578989
    18  H   -0.495017
    19  H   -0.453218
    20  H   -0.454547
    21  H   -0.652977
    22  H   -0.582733
    23  H   -0.006360
    24  H   -0.010800
    25  H   -0.050012
 Sum of Mulliken charges =  -1.00000

 Dipole moment (field-independent basis, Debye):
    X=             14.0056    Y=             -0.5232    Z=              3.6380  Tot=             14.4798
 Quadrupole moment (field-independent basis, Debye-Ang):
   XX=           -161.3629   YY=           -108.5747   ZZ=           -111.3066
   XY=             11.9087   XZ=            -13.7670   YZ=             -3.3058

 Normal termination of Gaussian 16 at Thu Sep 24 05:09:41 2020.
