 Gaussian 16, Revision B.01,

 ----------------------------------------------------------------------
 #p b3lyp/6-31G(d) opt freq NoSymm scf=(MaxCycle=2000,NoVarAcc,NoIncFoc
 k) scrf=(iefpcm,read,solvent=water)
 ----------------------------------------------------------------------

 -------------------
 SM41_m1.a.2.pdb.xyz
 -------------------
 Symbolic Z-matrix:
 Charge = -1 Multiplicity = 1

 SCF Done:  E(RB3LYP) =  -1119.88972891     A.U. after   13 cycles
 SCF Done:  E(RB3LYP) =  -1119.88962197     A.U. after   10 cycles
 SCF Done:  E(RB3LYP) =  -1119.88961956     A.U. after    9 cycles
 SCF Done:  E(RB3LYP) =  -1119.88972722     A.U. after   10 cycles
 SCF Done:  E(RB3LYP) =  -1119.88973032     A.U. after    8 cycles
 SCF Done:  E(RB3LYP) =  -1119.88961274     A.U. after   10 cycles
 SCF Done:  E(RB3LYP) =  -1119.88961661     A.U. after    8 cycles
 SCF Done:  E(RB3LYP) =  -1119.88972717     A.U. after   10 cycles
 SCF Done:  E(RB3LYP) =  -1119.88973024     A.U. after    8 cycles
 SCF Done:  E(RB3LYP) =  -1119.88961165     A.U. after   10 cycles
 SCF Done:  E(RB3LYP) =  -1119.88973020     A.U. after    8 cycles
 SCF Done:  E(RB3LYP) =  -1119.88961325     A.U. after   10 cycles
 SCF Done:  E(RB3LYP) =  -1119.88961491     A.U. after    7 cycles
 SCF Done:  E(RB3LYP) =  -1119.88972688     A.U. after   10 cycles
 SCF Done:  E(RB3LYP) =  -1119.88973020     A.U. after    8 cycles
 SCF Done:  E(RB3LYP) =  -1119.88961400     A.U. after   10 cycles
 Optimization completed.
    -- Stationary point found.
 Normal termination of Gaussian 16 at Thu Sep 24 04:57:02 2020.

 --------------------------------------------------------------------
 #P Geom=AllCheck Guess=TCheck SCRF=Check GenChk RB3LYP/6-31G(d) Freq
 --------------------------------------------------------------------

 Structure from the checkpoint file:  "SM41_m1.a.2.pdb.xyz.mst.a.w.chk"
 -------------------
 SM41_m1.a.2.pdb.xyz
 -------------------
 Charge = -1 Multiplicity = 1

 SCF Done:  E(RB3LYP) =  -1119.88961400     A.U. after    1 cycles

  Exact polarizability: 320.037  -7.830 193.902  -0.387 -11.898  91.831
 Approx polarizability: 328.924 -15.339 248.786  -1.512 -20.625 110.258

                      1                      2                      3
                      A                      A                      A
 Frequencies --     25.1799                37.9752                73.5727
 Red. masses --      4.1208                 6.9843                 5.8151
 Frc consts  --      0.0015                 0.0059                 0.0185
 IR Inten    --      2.1397                 3.4463                 2.0418

                      4                      5                      6
                      A                      A                      A
 Frequencies --     83.8838               104.6199               141.0450
 Red. masses --      6.3932                 5.3619                 5.8222
 Frc consts  --      0.0265                 0.0346                 0.0682
 IR Inten    --      7.8065                 4.9634                 0.3667

                      7                      8                      9
                      A                      A                      A
 Frequencies --    217.8052               228.2878               251.8436
 Red. masses --      4.6012                 1.0891                 7.1971
 Frc consts  --      0.1286                 0.0334                 0.2689
 IR Inten    --      1.9984                 0.2650                10.2533

                     10                     11                     12
                      A                      A                      A
 Frequencies --    287.3601               307.3394               348.6246
 Red. masses --      4.6221                 4.8180                 5.8420
 Frc consts  --      0.2249                 0.2681                 0.4183
 IR Inten    --      5.6221                 4.1066                 7.3325

                     13                     14                     15
                      A                      A                      A
 Frequencies --    389.5367               411.0834               415.6236
 Red. masses --      7.5767                 2.9914                 8.6582
 Frc consts  --      0.6774                 0.2978                 0.8812
 IR Inten    --      2.7205                 0.0010                 6.1821

                     16                     17                     18
                      A                      A                      A
 Frequencies --    463.1435               491.4265               496.7107
 Red. masses --      6.5694                 6.3987                 4.8242
 Frc consts  --      0.8302                 0.9105                 0.7013
 IR Inten    --     40.7595                75.8720                 9.6223

                     19                     20                     21
                      A                      A                      A
 Frequencies --    540.6741               631.1994               656.9700
 Red. masses --      6.2651                 6.4489                 7.1626
 Frc consts  --      1.0791                 1.5138                 1.8214
 IR Inten    --     71.4651                 0.0100                 1.6129

                     22                     23                     24
                      A                      A                      A
 Frequencies --    685.2779               703.1652               705.3934
 Red. masses --      6.6107                 3.5788                 2.3412
 Frc consts  --      1.8291                 1.0426                 0.6864
 IR Inten    --      4.0149                15.8940                54.8183

                     25                     26                     27
                      A                      A                      A
 Frequencies --    718.4295               763.7737               778.4142
 Red. masses --      3.7417                 9.1937                 1.5128
 Frc consts  --      1.1379                 3.1599                 0.5401
 IR Inten    --     16.3844               209.5913                92.3680

                     28                     29                     30
                      A                      A                      A
 Frequencies --    803.2820               864.3093               888.0791
 Red. masses --      1.9417                 1.2527                 9.0481
 Frc consts  --      0.7382                 0.5514                 4.2044
 IR Inten    --     12.9951                 0.0483               148.4894

                     31                     32                     33
                      A                      A                      A
 Frequencies --    927.0326               940.9147               957.2274
 Red. masses --     10.2411                 1.3918                 7.9823
 Frc consts  --      5.1854                 0.7260                 4.3093
 IR Inten    --     75.8281                 3.5822                20.9954

                     34                     35                     36
                      A                      A                      A
 Frequencies --    982.3371               992.1152               998.2424
 Red. masses --      1.3488                 1.4799                 1.4412
 Frc consts  --      0.7669                 0.8582                 0.8461
 IR Inten    --      0.0642                68.0054                25.0502

                     37                     38                     39
                      A                      A                      A
 Frequencies --   1010.1241              1016.6871              1037.6104
 Red. masses --      1.2594                 6.0960                 2.3903
 Frc consts  --      0.7571                 3.7126                 1.5162
 IR Inten    --      0.1595                 0.1722                24.0531

                     40                     41                     42
                      A                      A                      A
 Frequencies --   1055.0038              1084.2361              1097.7933
 Red. masses --      2.4514                 4.1745                 5.5361
 Frc consts  --      1.6076                 2.8914                 3.9309
 IR Inten    --     10.4966               402.7989               386.1829

                     43                     44                     45
                      A                      A                      A
 Frequencies --   1108.0025              1189.5453              1202.2280
 Red. masses --      1.5775                 1.0952                 1.1534
 Frc consts  --      1.1410                 0.9131                 0.9822
 IR Inten    --     14.9992                 0.0398                12.7165

                     46                     47                     48
                      A                      A                      A
 Frequencies --   1214.2815              1233.5449              1294.5864
 Red. masses --     13.6749                 2.3359                 4.7746
 Frc consts  --     11.8799                 2.0942                 4.7146
 IR Inten    --    459.2167               111.2245                 5.4551

                     49                     50                     51
                      A                      A                      A
 Frequencies --   1349.5635              1367.8631              1372.0953
 Red. masses --      2.9257                 2.1697                 1.2191
 Frc consts  --      3.1396                 2.3918                 1.3522
 IR Inten    --     29.1526                 1.5983                24.4224

                     52                     53                     54
                      A                      A                      A
 Frequencies --   1433.8870              1477.5478              1485.2978
 Red. masses --      6.8450                 1.0994                 3.0330
 Frc consts  --      8.2919                 1.4142                 3.9424
 IR Inten    --    223.7215                48.7653               400.0385

                     55                     56                     57
                      A                      A                      A
 Frequencies --   1493.9687              1500.2184              1541.0129
 Red. masses --      1.2037                 2.5553                 2.3890
 Frc consts  --      1.5830                 3.3885                 3.3426
 IR Inten    --      7.0092               352.7406               167.1439

                     58                     59                     60
                      A                      A                      A
 Frequencies --   1627.9165              1651.2596              1667.6552
 Red. masses --      5.7575                 6.8118                 6.1828
 Frc consts  --      8.9897                10.9432                10.1308
 IR Inten    --    114.9177                99.1817                29.6509

                     61                     62                     63
                      A                      A                      A
 Frequencies --   3099.2670              3198.2941              3204.3209
 Red. masses --      1.0299                 1.1070                 1.0857
 Frc consts  --      5.8287                 6.6716                 6.5680
 IR Inten    --      7.2094                 6.4968                 4.0242

                     64                     65                     66
                      A                      A                      A
 Frequencies --   3206.4030              3209.6551              3218.1452
 Red. masses --      1.1071                 1.0884                 1.0925
 Frc consts  --      6.7063                 6.6062                 6.6662
 IR Inten    --      1.2589                 3.5209                42.2572

                     67                     68                     69
                      A                      A                      A
 Frequencies --   3228.0904              3235.8314              3303.7225
 Red. masses --      1.0958                 1.0946                 1.0982
 Frc consts  --      6.7278                 6.7526                 7.0621
 IR Inten    --     47.3597                12.5737                 1.0284

 - Thermochemistry -
 -------------------
 Temperature   298.150 Kelvin.  Pressure   1.00000 Atm.
 Atom     1 has atomic number  8 and mass  15.99491

 Molecular mass:   237.03339 amu.
 Principal axes and moments of inertia in atomic units:
                           1         2         3
     Eigenvalues --   925.996889742.94258**********
           X            0.99987   0.00011   0.01604
           Y           -0.00163   0.99554   0.09433
           Z           -0.01596  -0.09434   0.99541
 This molecule is an asymmetric top.
 Rotational symmetry number  1.
 Warning -- assumption of classical behavior for rotation
           may cause significant error
 Rotational temperatures (Kelvin)      0.09354     0.00889     0.00844
 Rotational constants (GHZ):           1.94897     0.18524     0.17591
 Zero-point vibrational energy     476876.7 (Joules/Mol)
                                  113.97627 (Kcal/Mol)
 Warning -- explicit consideration of  19 degrees of freedom as
           vibrations may cause significant error
 Vibrational temperatures:     36.23    54.64   105.85   120.69   150.52
          (Kelvin)            202.93   313.37   328.46   362.35   413.45
                              442.19   501.59   560.46   591.46   597.99
                              666.36   707.05   714.66   777.91   908.16
                              945.23   985.96  1011.70  1014.90  1033.66
                             1098.90  1119.96  1155.74  1243.55  1277.75
                             1333.79  1353.77  1377.24  1413.36  1427.43
                             1436.25  1453.34  1462.79  1492.89  1517.92
                             1559.97  1579.48  1594.17  1711.49  1729.74
                             1747.08  1774.80  1862.62  1941.72  1968.05
                             1974.14  2063.04  2125.86  2137.01  2149.49
                             2158.48  2217.17  2342.21  2375.79  2399.38
                             4459.15  4601.63  4610.30  4613.30  4617.98
                             4630.19  4644.50  4655.64  4753.32

 Zero-point correction=                           0.181633 (Hartree/Particle)
 Thermal correction to Energy=                    0.195407
 Thermal correction to Enthalpy=                  0.196351
 Thermal correction to Gibbs Free Energy=         0.139185
 Sum of electronic and zero-point Energies=          -1119.707981
 Sum of electronic and thermal Energies=             -1119.694207
 Sum of electronic and thermal Enthalpies=           -1119.693263
 Sum of electronic and thermal Free Energies=        -1119.750429

                     E (Thermal)             CV                S
                      KCal/Mol        Cal/Mol-Kelvin    Cal/Mol-Kelvin
 Total                  122.620             52.339            120.316
 Electronic               0.000              0.000              0.000
 Translational            0.889              2.981             42.291
 Rotational               0.889              2.981             32.892
 Vibrational            120.842             46.378             45.133
 Vibration     1          0.593              1.985              6.177
 Vibration     2          0.594              1.982              5.362
 Vibration     3          0.599              1.966              4.055
 Vibration     4          0.601              1.960              3.798
 Vibration     5          0.605              1.946              3.366
 Vibration     6          0.615              1.912              2.790
 Vibration     7          0.646              1.814              1.977
 Vibration     8          0.651              1.798              1.892
 Vibration     9          0.664              1.760              1.718
 Vibration    10          0.685              1.697              1.489
 Vibration    11          0.697              1.660              1.377
 Vibration    12          0.726              1.578              1.172
 Vibration    13          0.757              1.493              1.002
 Vibration    14          0.775              1.446              0.923
 Vibration    15          0.779              1.436              0.907
 Vibration    16          0.821              1.332              0.757
 Vibration    17          0.847              1.269              0.680
 Vibration    18          0.852              1.257              0.666
 Vibration    19          0.896              1.160              0.564

 Optimization completed.
    -- Stationary point found.
 Normal termination of Gaussian 16 at Thu Sep 24 05:01:51 2020.

 ----------------------------------------------------------------------
 #p b3lyp/6-31G(d) scrf=(iefpcm,read,solvent=water) geom=allcheck guess
 =read
 ----------------------------------------------------------------------

 Structure from the checkpoint file:  "SM41_m1.a.2.pdb.xyz.mst.a.w.chk"
 -------------------
 SM41_m1.a.2.pdb.xyz
 -------------------
 Charge = -1 Multiplicity = 1

 SCF Done:  E(RB3LYP) =  -1119.88961598     A.U. after    6 cycles
 Normal termination of Gaussian 16 at Thu Sep 24 05:02:17 2020.

 -----------------------------
 #p B3LYP/6-31G* geom=allcheck
 -----------------------------

 Structure from the checkpoint file:  "SM41_m1.a.2.pdb.xyz.mst.a.w.chk"
 -------------------
 SM41_m1.a.2.pdb.xyz
 -------------------
 Charge = -1 Multiplicity = 1

 SCF Done:  E(RB3LYP) =  -1119.78928268     A.U. after   15 cycles

 The electronic state is 1-A.
 Alpha  occ. eigenvalues --  -88.92253 -19.08427 -18.94517 -18.94509 -14.21342
 Alpha  occ. eigenvalues --  -14.14150 -10.12743 -10.11436 -10.11101 -10.10991
 Alpha  occ. eigenvalues --  -10.10937 -10.10656 -10.10382 -10.10221 -10.05991
 Alpha  occ. eigenvalues --  -10.05976  -7.94683  -5.91139  -5.91082  -5.91073
 Alpha  occ. eigenvalues --   -0.98325  -0.90910  -0.79297  -0.77351  -0.75553
 Alpha  occ. eigenvalues --   -0.69328  -0.66711  -0.65827  -0.63287  -0.59779
 Alpha  occ. eigenvalues --   -0.53161  -0.52372  -0.47611  -0.46577  -0.43924
 Alpha  occ. eigenvalues --   -0.39981  -0.37537  -0.36312  -0.35907  -0.33955
 Alpha  occ. eigenvalues --   -0.32970  -0.32772  -0.31140  -0.30213  -0.29458
 Alpha  occ. eigenvalues --   -0.28030  -0.27686  -0.26691  -0.26265  -0.24998
 Alpha  occ. eigenvalues --   -0.24545  -0.19593  -0.18056  -0.16895  -0.16126
 Alpha  occ. eigenvalues --   -0.15431  -0.13561  -0.11811  -0.11113  -0.10800
 Alpha  occ. eigenvalues --   -0.08549  -0.05509
 Alpha virt. eigenvalues --    0.06285   0.08235   0.16016   0.17072   0.21124
 Alpha virt. eigenvalues --    0.21527   0.22939   0.23517   0.24746   0.25494
 Alpha virt. eigenvalues --    0.26380   0.27178   0.27356   0.27428   0.27818

 Mulliken charges:
               1
     1  O   -0.600694
     2  S    1.118825
     3  N   -0.699314
     4  C    0.483047
     5  N   -0.278681
     6  O   -0.447620
     7  C    0.381185
     8  C    0.087834
     9  C   -0.170688
    10  C   -0.140759
    11  C   -0.131592
    12  C   -0.135809
    13  C   -0.171760
    14  C   -0.300007
    15  C   -0.637798
    16  O   -0.595659
    17  H    0.130615
    18  H    0.109428
    19  H    0.103443
    20  H    0.110759
    21  H    0.153818
    22  H    0.116478
    23  H    0.196320
    24  H    0.157533
    25  H    0.161097
 Sum of Mulliken charges =  -1.00000

 Dipole moment (field-independent basis, Debye):
    X=            -12.5323    Y=             -0.5836    Z=              3.1809  Tot=             12.9429
 Quadrupole moment (field-independent basis, Debye-Ang):
   XX=           -158.0573   YY=           -105.1002   ZZ=           -105.8445
   XY=            -10.3833   XZ=             11.7857   YZ=             -2.7562

 Normal termination of Gaussian 16 at Thu Sep 24 05:02:48 2020.
 Gaussian 16:  ES64L-G16RevB.01 20-Dec-2017

 ----------------------------------------------------------------------
 #p mp2/aug-cc-pVDZ scf=(MaxCycle=2000,NoVarAcc,NoIncFock) maxdisk=120G
 B geom=allcheck
 ----------------------------------------------------------------------

 Structure from the checkpoint file:  "SM41_m1.a.2.pdb.xyz.mst.a.w.chk"
 -------------------
 SM41_m1.a.2.pdb.xyz
 -------------------
 Charge = -1 Multiplicity = 1

                         Standard orientation:
 ---------------------------------------------------------------------
 Center     Atomic      Atomic             Coordinates (Angstroms)
 Number     Number       Type             X           Y           Z
 ---------------------------------------------------------------------
      1          8           0        3.642630   -0.749648   -1.301935
      2         16           0        3.567138    0.147464   -0.114375
      3          7           0        2.193934    0.985977    0.003300
      4          6           0        0.992574    0.329794   -0.023751
      5          7           0        0.804651   -0.991789   -0.068535
      6          8           0       -0.605491   -1.175822   -0.057386
      7          6           0       -1.211362    0.035595   -0.008782
      8          6           0       -2.672035    0.047864    0.002476
      9          6           0       -3.370871    1.263498    0.083401
     10          6           0       -4.763016    1.273932    0.091839
     11          6           0       -5.476701    0.074299    0.020059
     12          6           0       -4.787574   -1.137816   -0.060011
     13          6           0       -3.394713   -1.153388   -0.068856
     14          6           0       -0.269058    1.018118    0.015547
     15          6           0        3.690261   -0.925472    1.329459
     16          8           0        4.668974    1.137292   -0.008007
     17          1           0       -2.822073    2.197774    0.140599
     18          1           0       -5.292030    2.218960    0.154848
     19          1           0       -6.561524    0.085170    0.026577
     20          1           0       -5.335076   -2.072851   -0.116327
     21          1           0       -2.857005   -2.091908   -0.131897
     22          1           0       -0.415719    2.085642    0.051738
     23          1           0        2.825316   -1.588046    1.335628
     24          1           0        3.706043   -0.306439    2.226626
     25          1           0        4.613817   -1.500162    1.249201
 ---------------------------------------------------------------------

 SCF Done:  E(RHF) =  -1114.93030450     A.U. after   18 cycles
