 Gaussian 16, Revision B.01,

 ----------------------------------------------------------------------
 #p b3lyp/6-31G(d) opt freq NoSymm scf=(MaxCycle=2000,NoVarAcc,NoIncFoc
 k) scrf=(iefpcm,read,solvent=water)
 ----------------------------------------------------------------------

 -------------------
 SM41_m1.a.6.pdb.xyz
 -------------------
 Symbolic Z-matrix:
 Charge = -1 Multiplicity = 1

 SCF Done:  E(RB3LYP) =  -1119.88834803     A.U. after   13 cycles
 SCF Done:  E(RB3LYP) =  -1119.88808420     A.U. after   10 cycles
 SCF Done:  E(RB3LYP) =  -1119.88825143     A.U. after    9 cycles
 SCF Done:  E(RB3LYP) =  -1119.88834482     A.U. after    9 cycles
 SCF Done:  E(RB3LYP) =  -1119.88834912     A.U. after    8 cycles
 SCF Done:  E(RB3LYP) =  -1119.88821605     A.U. after   10 cycles
 SCF Done:  E(RB3LYP) =  -1119.88824354     A.U. after    8 cycles
 SCF Done:  E(RB3LYP) =  -1119.88834281     A.U. after   10 cycles
 SCF Done:  E(RB3LYP) =  -1119.88834878     A.U. after    8 cycles
 SCF Done:  E(RB3LYP) =  -1119.88834912     A.U. after    7 cycles
 SCF Done:  E(RB3LYP) =  -1119.88822197     A.U. after   10 cycles
 SCF Done:  E(RB3LYP) =  -1119.88824414     A.U. after    8 cycles
 SCF Done:  E(RB3LYP) =  -1119.88834187     A.U. after   10 cycles
 SCF Done:  E(RB3LYP) =  -1119.88824098     A.U. after   10 cycles
 SCF Done:  E(RB3LYP) =  -1119.88834165     A.U. after   10 cycles
 SCF Done:  E(RB3LYP) =  -1119.88824128     A.U. after   10 cycles
 Optimization completed on the basis of negligible forces.
    -- Stationary point found.
 Normal termination of Gaussian 16 at Thu Sep 24 05:14:00 2020.

 --------------------------------------------------------------------
 #P Geom=AllCheck Guess=TCheck SCRF=Check GenChk RB3LYP/6-31G(d) Freq
 --------------------------------------------------------------------

 Structure from the checkpoint file:  "SM41_m1.a.6.pdb.xyz.mst.a.w.chk"
 -------------------
 SM41_m1.a.6.pdb.xyz
 -------------------
 Charge = -1 Multiplicity = 1

 SCF Done:  E(RB3LYP) =  -1119.88824128     A.U. after    1 cycles

  Exact polarizability: 306.426  -6.296 204.194   7.134  -5.624  91.903
 Approx polarizability: 326.854  -4.654 256.981  10.484  -3.653 106.255

                      1                      2                      3
                      A                      A                      A
 Frequencies --     28.7638                39.1470                66.2753
 Red. masses --      4.0274                 5.2648                 6.7967
 Frc consts  --      0.0020                 0.0048                 0.0176
 IR Inten    --      1.3390                 5.5559                 2.1561

                      4                      5                      6
                      A                      A                      A
 Frequencies --     77.2498                96.7253               155.0002
 Red. masses --      5.4132                 5.3103                 6.0262
 Frc consts  --      0.0190                 0.0293                 0.0853
 IR Inten    --      8.0555                 4.4987                 8.8785

                      7                      8                      9
                      A                      A                      A
 Frequencies --    218.0801               243.2481               272.8760
 Red. masses --      4.7309                 1.1583                 4.7757
 Frc consts  --      0.1326                 0.0404                 0.2095
 IR Inten    --      2.8353                 1.1833                 0.1289

                     10                     11                     12
                      A                      A                      A
 Frequencies --    297.3686               314.6997               335.9182
 Red. masses --      4.7062                 6.2671                 4.8808
 Frc consts  --      0.2452                 0.3657                 0.3245
 IR Inten    --      0.6894                 0.4195                 0.2148

                     13                     14                     15
                      A                      A                      A
 Frequencies --    371.6969               411.5882               412.4074
 Red. masses --      8.1435                 7.4389                 3.3012
 Frc consts  --      0.6629                 0.7425                 0.3308
 IR Inten    --      2.2935                 8.4007                 1.5641

                     16                     17                     18
                      A                      A                      A
 Frequencies --    464.7320               488.4786               496.0979
 Red. masses --      5.8836                 8.3022                 4.0753
 Frc consts  --      0.7487                 1.1672                 0.5909
 IR Inten    --      6.2368                78.3974                 6.9207

                     19                     20                     21
                      A                      A                      A
 Frequencies --    540.6559               630.9733               661.4902
 Red. masses --      8.3819                 6.4411                 7.3149
 Frc consts  --      1.4436                 1.5109                 1.8858
 IR Inten    --    146.6310                 0.0129                 1.7429

                     22                     23                     24
                      A                      A                      A
 Frequencies --    676.7884               704.8835               707.1524
 Red. masses --      7.1869                 2.5451                 2.9584
 Frc consts  --      1.9395                 0.7450                 0.8716
 IR Inten    --     33.6778                67.2792                 0.3918

                     25                     26                     27
                      A                      A                      A
 Frequencies --    720.1926               754.4395               783.3412
 Red. masses --      4.8839                 7.1424                 1.7567
 Frc consts  --      1.4925                 2.3952                 0.6351
 IR Inten    --      3.2847               145.3252                62.4674

                     28                     29                     30
                      A                      A                      A
 Frequencies --    823.5290               863.8344               915.9060
 Red. masses --      1.4681                 1.2513                 8.7291
 Frc consts  --      0.5866                 0.5501                 4.3144
 IR Inten    --     36.3434                 0.2863                24.0045

                     31                     32                     33
                      A                      A                      A
 Frequencies --    931.8464               941.7208               956.3446
 Red. masses --      9.6138                 1.3928                 8.6880
 Frc consts  --      4.9185                 0.7277                 4.6816
 IR Inten    --    180.5009                 4.4363                54.5288

                     34                     35                     36
                      A                      A                      A
 Frequencies --    980.9959               993.4998               997.2254
 Red. masses --      1.3496                 1.4755                 1.4096
 Frc consts  --      0.7652                 0.8581                 0.8259
 IR Inten    --      0.0081                61.9127                16.8983

                     37                     38                     39
                      A                      A                      A
 Frequencies --   1008.7731              1016.1564              1034.1519
 Red. masses --      1.2586                 6.0963                 2.4203
 Frc consts  --      0.7546                 3.7089                 1.5251
 IR Inten    --      0.2904                 0.3996                28.8026

                     40                     41                     42
                      A                      A                      A
 Frequencies --   1054.8694              1087.6675              1096.3292
 Red. masses --      2.4337                 3.2586                 8.7226
 Frc consts  --      1.5955                 2.2713                 6.1770
 IR Inten    --     32.0163               291.0555               424.1331

                     43                     44                     45
                      A                      A                      A
 Frequencies --   1103.7607              1183.3098              1194.7288
 Red. masses --      1.5455                 1.1472                 1.1940
 Frc consts  --      1.1093                 0.9464                 1.0042
 IR Inten    --      2.5261                 5.6390                 9.0510

                     46                     47                     48
                      A                      A                      A
 Frequencies --   1211.3519              1228.7344              1295.5629
 Red. masses --      5.8134                 2.7032                 4.3226
 Frc consts  --      5.0260                 2.4046                 4.2748
 IR Inten    --    326.1721               238.1471                16.4987

                     49                     50                     51
                      A                      A                      A
 Frequencies --   1349.7545              1365.3511              1383.9203
 Red. masses --      2.8041                 2.3862                 1.2183
 Frc consts  --      3.0099                 2.6208                 1.3748
 IR Inten    --     50.6647                 2.1463                29.2533

                     52                     53                     54
                      A                      A                      A
 Frequencies --   1434.9958              1475.7292              1487.5582
 Red. masses --      7.1171                 4.5960                 1.0609
 Frc consts  --      8.6348                 5.8971                 1.3831
 IR Inten    --    316.9275               519.3272                 3.8095

                     55                     56                     57
                      A                      A                      A
 Frequencies --   1488.6660              1497.0962              1539.3216
 Red. masses --      1.1012                 2.4794                 2.4334
 Frc consts  --      1.4379                 3.2741                 3.3972
 IR Inten    --     24.5587               168.2015               154.4107

                     58                     59                     60
                      A                      A                      A
 Frequencies --   1625.8368              1650.5972              1665.6665
 Red. masses --      5.8798                 6.8239                 6.2692
 Frc consts  --      9.1572                10.9538                10.2480
 IR Inten    --    142.7438               108.9223                34.8262

                     61                     62                     63
                      A                      A                      A
 Frequencies --   3098.1231              3194.2189              3201.8361
 Red. masses --      1.0302                 1.1066                 1.1071
 Frc consts  --      5.8259                 6.6525                 6.6872
 IR Inten    --      5.0396                 6.6663                 6.2404

                     64                     65                     66
                      A                      A                      A
 Frequencies --   3203.8638              3210.4099              3218.7369
 Red. masses --      1.0857                 1.0884                 1.0929
 Frc consts  --      6.5661                 6.6096                 6.6710
 IR Inten    --      2.9302                 6.3932                43.8424

                     67                     68                     69
                      A                      A                      A
 Frequencies --   3227.8104              3239.7694              3330.9611
 Red. masses --      1.0963                 1.0937                 1.0970
 Frc consts  --      6.7297                 6.7634                 7.1710
 IR Inten    --     43.9925                12.2956                 6.0851

 - Thermochemistry -
 -------------------
 Temperature   298.150 Kelvin.  Pressure   1.00000 Atm.
 Atom     1 has atomic number  8 and mass  15.99491

 Molecular mass:   237.03339 amu.
 Principal axes and moments of inertia in atomic units:
                           1         2         3
     Eigenvalues --  1339.786598367.018999274.95565
           X            0.99985   0.00684  -0.01571
           Y           -0.00552   0.99658   0.08246
           Z            0.01622  -0.08236   0.99647
 This molecule is an asymmetric top.
 Rotational symmetry number  1.
 Warning -- assumption of classical behavior for rotation
           may cause significant error
 Rotational temperatures (Kelvin)      0.06465     0.01035     0.00934
 Rotational constants (GHZ):           1.34704     0.21570     0.19458
 Zero-point vibrational energy     477195.1 (Joules/Mol)
                                  114.05237 (Kcal/Mol)
 Warning -- explicit consideration of  19 degrees of freedom as
           vibrations may cause significant error
 Vibrational temperatures:     41.38    56.32    95.36   111.15   139.17
          (Kelvin)            223.01   313.77   349.98   392.61   427.85
                              452.78   483.31   534.79   592.18   593.36
                              668.65   702.81   713.77   777.88   907.83
                              951.74   973.75  1014.17  1017.43  1036.20
                             1085.47  1127.05  1184.87  1242.86  1317.78
                             1340.72  1354.93  1375.97  1411.43  1429.42
                             1434.78  1451.40  1462.02  1487.91  1517.72
                             1564.91  1577.37  1588.07  1702.52  1718.95
                             1742.87  1767.87  1864.03  1942.00  1964.44
                             1991.15  2064.64  2123.25  2140.26  2141.86
                             2153.99  2214.74  2339.22  2374.84  2396.52
                             4457.51  4595.77  4606.73  4609.65  4619.06
                             4631.04  4644.10  4661.31  4792.51

 Zero-point correction=                           0.181754 (Hartree/Particle)
 Thermal correction to Energy=                    0.195492
 Thermal correction to Enthalpy=                  0.196436
 Thermal correction to Gibbs Free Energy=         0.139318
 Sum of electronic and zero-point Energies=          -1119.706487
 Sum of electronic and thermal Energies=             -1119.692749
 Sum of electronic and thermal Enthalpies=           -1119.691805
 Sum of electronic and thermal Free Energies=        -1119.748924

                     E (Thermal)             CV                S
                      KCal/Mol        Cal/Mol-Kelvin    Cal/Mol-Kelvin
 Total                  122.673             52.269            120.216
 Electronic               0.000              0.000              0.000
 Translational            0.889              2.981             42.291
 Rotational               0.889              2.981             33.008
 Vibrational            120.896             46.307             44.917
 Vibration     1          0.593              1.984              5.913
 Vibration     2          0.594              1.981              5.302
 Vibration     3          0.598              1.970              4.261
 Vibration     4          0.599              1.964              3.960
 Vibration     5          0.603              1.952              3.519
 Vibration     6          0.620              1.897              2.610
 Vibration     7          0.646              1.814              1.975
 Vibration     8          0.659              1.774              1.779
 Vibration     9          0.676              1.723              1.578
 Vibration    10          0.691              1.679              1.432
 Vibration    11          0.702              1.646              1.338
 Vibration    12          0.717              1.604              1.231
 Vibration    13          0.743              1.530              1.073
 Vibration    14          0.776              1.445              0.921
 Vibration    15          0.776              1.443              0.918
 Vibration    16          0.822              1.328              0.752
 Vibration    17          0.844              1.276              0.688
 Vibration    18          0.852              1.259              0.668
 Vibration    19          0.896              1.160              0.564

 Optimization completed.
    -- Stationary point found.
 Normal termination of Gaussian 16 at Thu Sep 24 05:19:41 2020.

 ----------------------------------------------------------------------
 #p b3lyp/6-31G(d) scrf=(iefpcm,read,solvent=water) geom=allcheck guess
 =read
 ----------------------------------------------------------------------

 Structure from the checkpoint file:  "SM41_m1.a.6.pdb.xyz.mst.a.w.chk"
 -------------------
 SM41_m1.a.6.pdb.xyz
 -------------------
 Charge = -1 Multiplicity = 1

 SCF Done:  E(RB3LYP) =  -1119.88821441     A.U. after    7 cycles
 Normal termination of Gaussian 16 at Thu Sep 24 05:20:11 2020.

 -----------------------------
 #p B3LYP/6-31G* geom=allcheck
 -----------------------------

 Structure from the checkpoint file:  "SM41_m1.a.6.pdb.xyz.mst.a.w.chk"
 -------------------
 SM41_m1.a.6.pdb.xyz
 -------------------
 Charge = -1 Multiplicity = 1

 SCF Done:  E(RB3LYP) =  -1119.79042278     A.U. after   15 cycles
 Normal termination of Gaussian 16 at Thu Sep 24 05:20:39 2020.
 Gaussian 16:  ES64L-G16RevB.01 20-Dec-2017

 ----------------------------------------------------------------------
 #p mp2/aug-cc-pVDZ scf=(MaxCycle=2000,NoVarAcc,NoIncFock) maxdisk=120G
 B geom=allcheck
 ----------------------------------------------------------------------

 Structure from the checkpoint file:  "SM41_m1.a.6.pdb.xyz.mst.a.w.chk"
 -------------------
 SM41_m1.a.6.pdb.xyz
 -------------------
 Charge = -1 Multiplicity = 1

                         Standard orientation:
 ---------------------------------------------------------------------
 Center     Atomic      Atomic             Coordinates (Angstroms)
 Number     Number       Type             X           Y           Z
 ---------------------------------------------------------------------
      1          8           0       -4.698132   -0.094142   -0.432054
      2         16           0       -3.276806   -0.380299   -0.115844
      3          7           0       -2.489185    1.016147   -0.209986
      4          6           0       -1.117885    1.015360   -0.122081
      5          7           0       -0.503151    2.196304   -0.006265
      6          8           0        0.883640    1.901619    0.035191
      7          6           0        1.057333    0.561697   -0.046478
      8          6           0        2.429238    0.060291   -0.017932
      9          6           0        3.512009    0.945205    0.107865
     10          6           0        4.817369    0.459024    0.133505
     11          6           0        5.059363   -0.912842    0.034012
     12          6           0        3.985764   -1.799072   -0.091246
     13          6           0        2.679300   -1.318420   -0.117036
     14          6           0       -0.154260   -0.052957   -0.149018
     15          6           0       -3.234290   -0.913206    1.608754
     16          8           0       -2.665420   -1.496246   -0.894180
     17          1           0        3.320687    2.008512    0.184836
     18          1           0        5.646373    1.152030    0.231341
     19          1           0        6.076593   -1.289398    0.053711
     20          1           0        4.166709   -2.865839   -0.169279
     21          1           0        1.848749   -2.009187   -0.214734
     22          1           0       -0.365428   -1.102251   -0.258617
     23          1           0       -3.698783   -0.142927    2.224424
     24          1           0       -2.196958   -1.063549    1.910826
     25          1           0       -3.787048   -1.850092    1.691037
 ---------------------------------------------------------------------

 SCF Done:  E(RHF) =  -1114.93148285     A.U. after   18 cycles
 E2 =    -0.2464430067D+01 EUMP2 =    -0.11173959129190D+04

 The electronic state is 1-A.
 Alpha  occ. eigenvalues --  -92.04938 -20.50428 -20.38791 -20.38148 -15.45992
 Alpha  occ. eigenvalues --  -15.38964 -11.20020 -11.17963 -11.17452 -11.17156
 Alpha  occ. eigenvalues --  -11.17004 -11.16930 -11.16720 -11.16398 -11.13759
 Alpha  occ. eigenvalues --  -11.10985  -9.01695  -6.70249  -6.70168  -6.70111
 Alpha  occ. eigenvalues --   -1.34036  -1.27739  -1.15503  -1.08580  -1.07500
 Alpha  occ. eigenvalues --   -0.98607  -0.96101  -0.94231  -0.90839  -0.87823
 Alpha  occ. eigenvalues --   -0.77067  -0.75574  -0.70558  -0.67630  -0.63904
 Alpha  occ. eigenvalues --   -0.60899  -0.57620  -0.55223  -0.54526  -0.52035
 Alpha  occ. eigenvalues --   -0.51522  -0.51059  -0.50719  -0.49682  -0.48309
 Alpha  occ. eigenvalues --   -0.46146  -0.44637  -0.43463  -0.42947  -0.42614
 Alpha  occ. eigenvalues --   -0.41038  -0.35920  -0.34178  -0.32826  -0.32343
 Alpha  occ. eigenvalues --   -0.30373  -0.29539  -0.29265  -0.26358  -0.25458
 Alpha  occ. eigenvalues --   -0.20755  -0.18300
 Alpha virt. eigenvalues --    0.08865   0.09999   0.11057   0.12414   0.13452
 Alpha virt. eigenvalues --    0.14122   0.14626   0.15251   0.16325   0.17786
 Alpha virt. eigenvalues --    0.18016   0.18146   0.18259   0.19579   0.20250

 Mulliken charges:
               1
     1  O   -1.226533
     2  S    2.801431
     3  N   -1.248527
     4  C   -0.030778
     5  N   -0.411992
     6  O   -1.135395
     7  C    0.340477
     8  C    1.379226
     9  C    0.351452
    10  C    0.255268
    11  C    0.490267
    12  C    0.030429
    13  C    0.518089
    14  C    1.581933
    15  C    0.052610
    16  O   -1.299461
    17  H   -0.662770
    18  H   -0.455610
    19  H   -0.456326
    20  H   -0.501891
    21  H   -0.554094
    22  H   -0.721833
    23  H    0.001082
    24  H   -0.062509
    25  H   -0.034544
 Sum of Mulliken charges =  -1.00000

 Dipole moment (field-independent basis, Debye):
    X=             12.2163    Y=             -4.4057    Z=              3.9940  Tot=             13.5867
 Quadrupole moment (field-independent basis, Debye-Ang):
   XX=           -155.6204   YY=           -118.6427   ZZ=           -108.5782
   XY=              1.8580   XZ=            -14.1762   YZ=             -3.3405

 Normal termination of Gaussian 16 at Thu Sep 24 05:37:08 2020.
