 Gaussian 16, Revision B.01,

 ----------------------------------------------------------------------
 #p b3lyp/6-31G(d) opt freq NoSymm scf=(MaxCycle=2000,NoVarAcc,NoIncFoc
 k) scrf=(iefpcm,read,solvent=water)
 ----------------------------------------------------------------------

 -------------------
 SM41_m0.n.9.pdb.xyz
 -------------------
 Symbolic Z-matrix:
 Charge =  0 Multiplicity = 1

 SCF Done:  E(RB3LYP) =  -1120.35897726     A.U. after   13 cycles
 SCF Done:  E(RB3LYP) =  -1120.35899303     A.U. after    9 cycles
 SCF Done:  E(RB3LYP) =  -1120.35898514     A.U. after    9 cycles
 SCF Done:  E(RB3LYP) =  -1120.35895954     A.U. after    9 cycles
 SCF Done:  E(RB3LYP) =  -1120.35895613     A.U. after    8 cycles
 SCF Done:  E(RB3LYP) =  -1120.35895821     A.U. after    8 cycles
 SCF Done:  E(RB3LYP) =  -1120.35895806     A.U. after    9 cycles
 SCF Done:  E(RB3LYP) =  -1120.35899288     A.U. after   10 cycles
 SCF Done:  E(RB3LYP) =  -1120.35896653     A.U. after   10 cycles
 SCF Done:  E(RB3LYP) =  -1120.35897101     A.U. after    8 cycles
 SCF Done:  E(RB3LYP) =  -1120.35899316     A.U. after    8 cycles
 SCF Done:  E(RB3LYP) =  -1120.35897640     A.U. after   10 cycles
 SCF Done:  E(RB3LYP) =  -1120.35897663     A.U. after    7 cycles
 SCF Done:  E(RB3LYP) =  -1120.35899236     A.U. after    9 cycles
 SCF Done:  E(RB3LYP) =  -1120.35899313     A.U. after    8 cycles
 SCF Done:  E(RB3LYP) =  -1120.35897670     A.U. after   10 cycles
 Optimization completed on the basis of negligible forces.
    -- Stationary point found.
 Normal termination of Gaussian 16 at Tue Sep 22 18:28:17 2020.

 --------------------------------------------------------------------
 #P Geom=AllCheck Guess=TCheck SCRF=Check GenChk RB3LYP/6-31G(d) Freq
 --------------------------------------------------------------------

 Structure from the checkpoint file:  "SM41_m0.n.9.pdb.xyz.mst.n.w.chk"
 -------------------
 SM41_m0.n.9.pdb.xyz
 -------------------
 Charge =  0 Multiplicity = 1

 SCF Done:  E(RB3LYP) =  -1120.35897670     A.U. after    1 cycles

  Exact polarizability: 301.717  -6.555 193.134   4.759   4.180  89.516
 Approx polarizability: 314.424 -11.458 247.931   7.326   9.056 106.385

                      1                      2                      3
                      A                      A                      A
 Frequencies --     27.8716                35.3685                64.7151
 Red. masses --      4.9065                 5.3983                 5.0608
 Frc consts  --      0.0022                 0.0040                 0.0125
 IR Inten    --      3.1389                 2.5859                 8.3460

                      4                      5                      6
                      A                      A                      A
 Frequencies --     78.0411                98.4333               137.0839
 Red. masses --      6.4345                 5.0153                 6.4209
 Frc consts  --      0.0231                 0.0286                 0.0711
 IR Inten    --     10.4714                 2.3982                 3.1483

                      7                      8                      9
                      A                      A                      A
 Frequencies --    215.8326               230.9764               241.7425
 Red. masses --      4.4843                 1.1416                 5.8502
 Frc consts  --      0.1231                 0.0359                 0.2014
 IR Inten    --      0.5796                 0.8201                 1.8663

                     10                     11                     12
                      A                      A                      A
 Frequencies --    272.1233               293.1134               339.0693
 Red. masses --      4.8621                 5.1742                 4.4056
 Frc consts  --      0.2121                 0.2619                 0.2984
 IR Inten    --      3.9080                 1.7066                 3.4804

                     13                     14                     15
                      A                      A                      A
 Frequencies --    386.1138               393.1084               411.7976
 Red. masses --      8.2874                 7.2981                 2.9622
 Frc consts  --      0.7279                 0.6645                 0.2960
 IR Inten    --      0.8606                 7.0291                 0.0162

                     16                     17                     18
                      A                      A                      A
 Frequencies --    445.6654               457.4897               482.8306
 Red. masses --      1.4572                 3.2932                 6.9733
 Frc consts  --      0.1705                 0.4061                 0.9578
 IR Inten    --    183.6874                82.4328                61.6039

                     19                     20                     21
                      A                      A                      A
 Frequencies --    498.6656               528.7401               630.4064
 Red. masses --      4.1882                 6.5272                 6.4460
 Frc consts  --      0.6136                 1.0751                 1.5093
 IR Inten    --      0.6621                93.6855                 0.0267

                     22                     23                     24
                      A                      A                      A
 Frequencies --    660.6426               692.9880               703.5836
 Red. masses --      8.2939                 6.3077                 1.7171
 Frc consts  --      2.1328                 1.7847                 0.5008
 IR Inten    --      0.1130                21.3775                34.8612

                     25                     26                     27
                      A                      A                      A
 Frequencies --    708.0057               723.6675               778.6577
 Red. masses --      3.7868                 5.9499                 1.4529
 Frc consts  --      1.1184                 1.8358                 0.5190
 IR Inten    --      0.4563                74.3470               112.6167

                     28                     29                     30
                      A                      A                      A
 Frequencies --    790.3885               805.4790               845.0389
 Red. masses --      6.5844                 1.9785                 5.3657
 Frc consts  --      2.4235                 0.7563                 2.2575
 IR Inten    --     48.6347                 7.0985               196.0541

                     31                     32                     33
                      A                      A                      A
 Frequencies --    863.3139               943.7902               961.1831
 Red. masses --      1.2543                 1.3902                 8.5908
 Frc consts  --      0.5508                 0.7296                 4.6762
 IR Inten    --      0.1038                 2.8594                 8.1108

                     34                     35                     36
                      A                      A                      A
 Frequencies --    969.2763               984.7312              1008.1639
 Red. masses --      9.1270                 1.3517                 1.3980
 Frc consts  --      5.0521                 0.7723                 0.8372
 IR Inten    --     40.7807                 0.0439                72.0289

                     37                     38                     39
                      A                      A                      A
 Frequencies --   1014.1057              1014.5893              1016.6824
 Red. masses --      1.3744                 1.2685                 6.0550
 Frc consts  --      0.8328                 0.7694                 3.6875
 IR Inten    --     60.4050                 0.0485                 0.6336

                     40                     41                     42
                      A                      A                      A
 Frequencies --   1046.5384              1066.7697              1090.1435
 Red. masses --      2.4309                 2.5368                 3.3968
 Frc consts  --      1.5687                 1.7009                 2.3784
 IR Inten    --      5.1576                30.4524                52.4501

                     43                     44                     45
                      A                      A                      A
 Frequencies --   1108.5254              1123.7232              1187.5655
 Red. masses --      1.5637                11.5871                 1.1118
 Frc consts  --      1.1321                 8.6207                 0.9238
 IR Inten    --     14.2537               425.0094                 1.5324

                     46                     47                     48
                      A                      A                      A
 Frequencies --   1200.7384              1218.2730              1291.1184
 Red. masses --      1.2143                 1.7512                 5.1250
 Frc consts  --      1.0316                 1.5313                 5.0336
 IR Inten    --     15.3992                24.0263               122.0373

                     49                     50                     51
                      A                      A                      A
 Frequencies --   1301.3322              1345.2229              1368.1395
 Red. masses --      6.5317                 2.6375                 2.2718
 Frc consts  --      6.5171                 2.8121                 2.5055
 IR Inten    --    184.6667                21.9124                 1.3392

                     52                     53                     54
                      A                      A                      A
 Frequencies --   1379.0169              1390.2513              1470.7844
 Red. masses --      1.1983                 1.9087                 1.0590
 Frc consts  --      1.3426                 2.1736                 1.3497
 IR Inten    --     18.6868                53.2894                 8.1566

                     55                     56                     57
                      A                      A                      A
 Frequencies --   1482.4314              1493.0367              1515.7285
 Red. masses --      1.0653                 2.3093                 3.1679
 Frc consts  --      1.3793                 3.0329                 4.2880
 IR Inten    --     11.1408                39.9813               748.3235

                     58                     59                     60
                      A                      A                      A
 Frequencies --   1519.4220              1556.1383              1629.0872
 Red. masses --      3.0586                 3.6578                 5.5238
 Frc consts  --      4.1603                 5.2188                 8.6373
 IR Inten    --     12.8822                36.8565               112.4749

                     61                     62                     63
                      A                      A                      A
 Frequencies --   1652.8666              1665.8227              3106.7393
 Red. masses --      6.5012                 6.0663                 1.0288
 Frc consts  --     10.4644                 9.9182                 5.8502
 IR Inten    --    108.0936                68.4040                 1.0044

                     64                     65                     66
                      A                      A                      A
 Frequencies --   3207.4677              3211.9373              3214.0320
 Red. masses --      1.0859                 1.1075                 1.0885
 Frc consts  --      6.5823                 6.7315                 6.6249
 IR Inten    --      1.7962                 1.4705                 6.6475

                     67                     68                     69
                      A                      A                      A
 Frequencies --   3220.2139              3222.2593              3229.8832
 Red. masses --      1.1089                 1.0927                 1.0960
 Frc consts  --      6.7753                 6.6845                 6.7363
 IR Inten    --      0.5629                38.1485                38.7871

                     70                     71                     72
                      A                      A                      A
 Frequencies --   3238.6697              3318.3939              3550.9797
 Red. masses --      1.0948                 1.0987                 1.0778
 Frc consts  --      6.7656                 7.1285                 8.0070
 IR Inten    --     12.4316                 1.9804               221.4287

 - Thermochemistry -
 -------------------
 Temperature   298.150 Kelvin.  Pressure   1.00000 Atm.
 Atom     1 has atomic number  8 and mass  15.99491

 Molecular mass:   238.04121 amu.
 Principal axes and moments of inertia in atomic units:
                           1         2         3
     Eigenvalues --   944.628389847.91137**********
           X            0.99997   0.00236  -0.00796
           Y           -0.00256   0.99968  -0.02516
           Z            0.00790   0.02518   0.99965
 This molecule is an asymmetric top.
 Rotational symmetry number  1.
 Warning -- assumption of classical behavior for rotation
           may cause significant error
 Rotational temperatures (Kelvin)      0.09169     0.00880     0.00836
 Rotational constants (GHZ):           1.91053     0.18326     0.17425
 Zero-point vibrational energy     510666.2 (Joules/Mol)
                                  122.05216 (Kcal/Mol)
 Warning -- explicit consideration of  20 degrees of freedom as
           vibrations may cause significant error
 Vibrational temperatures:     40.10    50.89    93.11   112.28   141.62
          (Kelvin)            197.23   310.54   332.32   347.81   391.52
                              421.72   487.85   555.53   565.60   592.48
                              641.21   658.23   694.69   717.47   760.74
                              907.01   950.52   997.06  1012.30  1018.66
                             1041.20  1120.31  1137.19  1158.90  1215.82
                             1242.12  1357.90  1382.93  1394.57  1416.81
                             1450.52  1459.07  1459.77  1462.78  1505.74
                             1534.84  1568.47  1594.92  1616.79  1708.64
                             1727.59  1752.82  1857.63  1872.33  1935.48
                             1968.45  1984.10  2000.26  2116.13  2132.89
                             2148.15  2180.80  2186.11  2238.94  2343.89
                             2378.11  2396.75  4469.90  4614.83  4621.26
                             4624.28  4633.17  4636.11  4647.08  4659.72
                             4774.43  5109.07

 Zero-point correction=                           0.194502 (Hartree/Particle)
 Thermal correction to Energy=                    0.208672
 Thermal correction to Enthalpy=                  0.209616
 Thermal correction to Gibbs Free Energy=         0.151625
 Sum of electronic and zero-point Energies=          -1120.164474
 Sum of electronic and thermal Energies=             -1120.150305
 Sum of electronic and thermal Enthalpies=           -1120.149360
 Sum of electronic and thermal Free Energies=        -1120.207352

                     E (Thermal)             CV                S
                      KCal/Mol        Cal/Mol-Kelvin    Cal/Mol-Kelvin
 Total                  130.944             53.797            122.054
 Electronic               0.000              0.000              0.000
 Translational            0.889              2.981             42.303
 Rotational               0.889              2.981             32.932
 Vibrational            129.166             47.836             46.818
 Vibration     1          0.593              1.984              5.975
 Vibration     2          0.594              1.982              5.503
 Vibration     3          0.597              1.971              4.308
 Vibration     4          0.599              1.964              3.940
 Vibration     5          0.604              1.950              3.485
 Vibration     6          0.614              1.916              2.844
 Vibration     7          0.645              1.817              1.994
 Vibration     8          0.653              1.794              1.871
 Vibration     9          0.658              1.776              1.790
 Vibration    10          0.675              1.725              1.583
 Vibration    11          0.688              1.687              1.456
 Vibration    12          0.719              1.597              1.217
 Vibration    13          0.755              1.500              1.015
 Vibration    14          0.760              1.485              0.988
 Vibration    15          0.776              1.445              0.920
 Vibration    16          0.805              1.370              0.809
 Vibration    17          0.816              1.344              0.773
 Vibration    18          0.839              1.288              0.702
 Vibration    19          0.854              1.253              0.661
 Vibration    20          0.884              1.186              0.590

 Optimization completed.
    -- Stationary point found.
 Normal termination of Gaussian 16 at Tue Sep 22 18:34:07 2020.

 ----------------------------------------------------------------------
 #p b3lyp/6-31G(d) scrf=(iefpcm,read,solvent=water) geom=allcheck guess
 =read
 ----------------------------------------------------------------------

 Structure from the checkpoint file:  "SM41_m0.n.9.pdb.xyz.mst.n.w.chk"
 -------------------
 SM41_m0.n.9.pdb.xyz
 -------------------
 Charge =  0 Multiplicity = 1

 SCF Done:  E(RB3LYP) =  -1120.35897797     A.U. after    4 cycles
 Normal termination of Gaussian 16 at Tue Sep 22 18:34:29 2020.

 -----------------------------
 #p B3LYP/6-31G* geom=allcheck
 -----------------------------

 Structure from the checkpoint file:  "SM41_m0.n.9.pdb.xyz.mst.n.w.chk"
 -------------------
 SM41_m0.n.9.pdb.xyz
 -------------------
 Charge =  0 Multiplicity = 1

 SCF Done:  E(RB3LYP) =  -1120.33265651     A.U. after   15 cycles
 Normal termination of Gaussian 16 at Tue Sep 22 18:35:00 2020.
 Gaussian 16:  ES64L-G16RevB.01 20-Dec-2017

 ----------------------------------------------------------------------
 #p mp2/aug-cc-pVDZ scf=(MaxCycle=2000,NoVarAcc,NoIncFock) maxdisk=120G
 B geom=allcheck
 ----------------------------------------------------------------------

 Structure from the checkpoint file:  "SM41_m0.n.9.pdb.xyz.mst.n.w.chk"
 -------------------
 SM41_m0.n.9.pdb.xyz
 -------------------
 Charge =  0 Multiplicity = 1

                         Standard orientation:
 ---------------------------------------------------------------------
 Center     Atomic      Atomic             Coordinates (Angstroms)
 Number     Number       Type             X           Y           Z
 ---------------------------------------------------------------------
      1          8           0       -4.660362    1.122223   -0.051930
      2         16           0       -3.640100    0.068296   -0.066236
      3          7           0       -2.186501    0.907551   -0.250587
      4          6           0       -0.928018    0.316296   -0.181702
      5          7           0       -0.762427   -0.993441   -0.195490
      6          8           0        0.629405   -1.175222   -0.135691
      7          6           0        1.244326    0.031109   -0.087097
      8          6           0        2.701624    0.040879   -0.021133
      9          6           0        3.426869   -1.161565   -0.047853
     10          6           0        4.817999   -1.139852    0.017603
     11          6           0        5.498890    0.076079    0.110159
     12          6           0        4.781560    1.275274    0.137104
     13          6           0        3.391404    1.260842    0.071981
     14          6           0        0.303435    1.022711   -0.112825
     15          6           0       -3.552275   -0.713274    1.543463
     16          8           0       -3.694481   -0.977621   -1.091584
     17          1           0       -2.244399    1.874760    0.067312
     18          1           0        2.896346   -2.103526   -0.120473
     19          1           0        5.370708   -2.072993   -0.004064
     20          1           0        6.582320    0.089896    0.161328
     21          1           0        5.305627    2.222115    0.209633
     22          1           0        2.838291    2.193271    0.095374
     23          1           0        0.448668    2.090163   -0.091713
     24          1           0       -3.498990    0.065843    2.303091
     25          1           0       -2.667108   -1.348302    1.560234
     26          1           0       -4.458752   -1.308774    1.657026
 ---------------------------------------------------------------------

 SCF Done:  E(RHF) =  -1115.46965417     A.U. after   17 cycles
 E2 =    -0.2451492519D+01 EUMP2 =    -0.11179211466904D+04

 The electronic state is 1-A.
 Alpha  occ. eigenvalues --  -92.23487 -20.66137 -20.56444 -20.55742 -15.64247
 Alpha  occ. eigenvalues --  -15.62839 -11.35317 -11.35016 -11.29032 -11.28054
 Alpha  occ. eigenvalues --  -11.27310 -11.26869 -11.26844 -11.26510 -11.26336
 Alpha  occ. eigenvalues --  -11.26073  -9.20252  -6.88777  -6.88766  -6.88618
 Alpha  occ. eigenvalues --   -1.50181  -1.46370  -1.34015  -1.28885  -1.18893
 Alpha  occ. eigenvalues --   -1.15127  -1.10629  -1.04958  -1.04285  -1.03532
 Alpha  occ. eigenvalues --   -0.90176  -0.88481  -0.85602  -0.82396  -0.79445
 Alpha  occ. eigenvalues --   -0.76072  -0.72902  -0.70475  -0.68475  -0.67611
 Alpha  occ. eigenvalues --   -0.66850  -0.65709  -0.65214  -0.63644  -0.61842
 Alpha  occ. eigenvalues --   -0.61407  -0.60695  -0.60144  -0.57543  -0.54848
 Alpha  occ. eigenvalues --   -0.53352  -0.52932  -0.51745  -0.51181  -0.49561
 Alpha  occ. eigenvalues --   -0.48599  -0.46536  -0.46317  -0.41705  -0.39550
 Alpha  occ. eigenvalues --   -0.36046  -0.33041
 Alpha virt. eigenvalues --    0.02191   0.02925   0.03542   0.04265   0.04676
 Alpha virt. eigenvalues --    0.04897   0.05969   0.06134   0.06583   0.07790
 Alpha virt. eigenvalues --    0.08776   0.09084   0.09580   0.10104   0.10256

 Mulliken charges:
               1
     1  O   -1.115973
     2  S    2.672458
     3  N   -0.900934
     4  C   -0.052137
     5  N   -0.210554
     6  O   -1.082632
     7  C    0.217935
     8  C    1.433319
     9  C    0.370614
    10  C    0.231959
    11  C    0.521556
    12  C    0.034660
    13  C    0.577207
    14  C    1.506546
    15  C    0.040387
    16  O   -1.131707
    17  H   -0.065034
    18  H   -0.654162
    19  H   -0.438397
    20  H   -0.431620
    21  H   -0.479966
    22  H   -0.580958
    23  H   -0.552117
    24  H    0.035952
    25  H    0.027581
    26  H    0.026013
 Sum of Mulliken charges =  -0.00000

 Dipole moment (field-independent basis, Debye):
    X=              6.0770    Y=              2.6821    Z=              4.4235  Tot=              7.9807
 Quadrupole moment (field-independent basis, Debye-Ang):
   XX=           -104.4034   YY=            -95.3411   ZZ=           -104.3269
   XY=              2.8510   XZ=            -15.5119   YZ=             -3.1703

 Normal termination of Gaussian 16 at Tue Sep 22 18:53:26 2020.
