 Gaussian 16, Revision B.01,

 ----------------------------------------------------------------------
 #p b3lyp/6-31G(d) opt freq NoSymm scf=(MaxCycle=2000,NoVarAcc,NoIncFoc
 k) scrf=(iefpcm,read,solvent=water)
 ----------------------------------------------------------------------

 -------------------
 SM41_m1.b.4.pdb.xyz
 -------------------
 Symbolic Z-matrix:
 Charge =  1 Multiplicity = 1

 SCF Done:  E(RB3LYP) =  -1120.76720695     A.U. after   14 cycles
 SCF Done:  E(RB3LYP) =  -1120.79147175     A.U. after   12 cycles
 SCF Done:  E(RB3LYP) =  -1120.79626741     A.U. after   11 cycles
 SCF Done:  E(RB3LYP) =  -1120.79744438     A.U. after   10 cycles
 SCF Done:  E(RB3LYP) =  -1120.79644117     A.U. after   13 cycles
 SCF Done:  E(RB3LYP) =  -1120.79834295     A.U. after   11 cycles
 SCF Done:  E(RB3LYP) =  -1120.79853361     A.U. after    9 cycles
 SCF Done:  E(RB3LYP) =  -1120.79885079     A.U. after   11 cycles
 SCF Done:  E(RB3LYP) =  -1120.79764440     A.U. after   11 cycles
 SCF Done:  E(RB3LYP) =  -1120.79891749     A.U. after    9 cycles
 SCF Done:  E(RB3LYP) =  -1120.79900109     A.U. after    7 cycles
 SCF Done:  E(RB3LYP) =  -1120.79900248     A.U. after    8 cycles
 SCF Done:  E(RB3LYP) =  -1120.79900103     A.U. after    8 cycles
 SCF Done:  E(RB3LYP) =  -1120.79900079     A.U. after    7 cycles
 SCF Done:  E(RB3LYP) =  -1120.79900242     A.U. after    8 cycles
 SCF Done:  E(RB3LYP) =  -1120.79900075     A.U. after    8 cycles
 Optimization completed.
    -- Stationary point found.
 Normal termination of Gaussian 16 at Thu Sep 24 05:10:10 2020.

 --------------------------------------------------------------------
 #P Geom=AllCheck Guess=TCheck SCRF=Check GenChk RB3LYP/6-31G(d) Freq
 --------------------------------------------------------------------

 Structure from the checkpoint file:  "SM41_m1.b.4.pdb.xyz.mst.b.w.chk"
 -------------------
 SM41_m1.b.4.pdb.xyz
 -------------------
 Charge =  1 Multiplicity = 1

 SCF Done:  E(RB3LYP) =  -1120.79900075     A.U. after    1 cycles

  Exact polarizability: 321.584  -7.150 187.993  -5.397  14.130  88.132
 Approx polarizability: 328.159 -15.648 239.932  -2.408  19.767 104.408

                      1                      2                      3
                      A                      A                      A
 Frequencies --     23.1897                35.9230                51.6247
 Red. masses --      3.9323                 5.5097                 6.2640
 Frc consts  --      0.0012                 0.0042                 0.0098
 IR Inten    --      3.1209                 6.2083                14.1275

                      4                      5                      6
                      A                      A                      A
 Frequencies --     83.2664                94.4299               141.6125
 Red. masses --      6.1431                 5.5264                 2.1787
 Frc consts  --      0.0251                 0.0290                 0.0257
 IR Inten    --      5.7673                 6.5734                52.6072

                      7                      8                      9
                      A                      A                      A
 Frequencies --    169.8620               215.5077               224.5907
 Red. masses --      5.4956                 2.1660                 1.8285
 Frc consts  --      0.0934                 0.0593                 0.0543
 IR Inten    --      9.3502                17.0116                13.7166

                     10                     11                     12
                      A                      A                      A
 Frequencies --    239.7504               277.1231               285.2893
 Red. masses --      2.9316                 4.4690                 6.0830
 Frc consts  --      0.0993                 0.2022                 0.2917
 IR Inten    --      5.3676                 5.0867                 2.6697

                     13                     14                     15
                      A                      A                      A
 Frequencies --    342.0631               392.1027               398.0036
 Red. masses --      4.3410                 3.0732                 3.8924
 Frc consts  --      0.2993                 0.2784                 0.3633
 IR Inten    --      2.7082                78.4425                30.4462

                     16                     17                     18
                      A                      A                      A
 Frequencies --    407.6550               439.9201               458.5641
 Red. masses --      2.9152                 1.2661                 4.9716
 Frc consts  --      0.2854                 0.1444                 0.6160
 IR Inten    --      0.2360               231.6663                37.7345

                     19                     20                     21
                      A                      A                      A
 Frequencies --    481.1446               490.7235               529.3466
 Red. masses --      4.7223                 3.3995                 6.6569
 Frc consts  --      0.6441                 0.4823                 1.0990
 IR Inten    --     28.3660                23.8070               136.6688

                     22                     23                     24
                      A                      A                      A
 Frequencies --    629.8288               649.1363               694.1890
 Red. masses --      6.4637                 5.8041                 6.4515
 Frc consts  --      1.5107                 1.4410                 1.8318
 IR Inten    --      0.3767                 8.3784                29.4031

                     25                     26                     27
                      A                      A                      A
 Frequencies --    697.7108               704.1096               735.5419
 Red. masses --      1.6622                 3.3533                 6.3792
 Frc consts  --      0.4767                 0.9795                 2.0334
 IR Inten    --     31.9480                 0.9820                32.2810

                     28                     29                     30
                      A                      A                      A
 Frequencies --    756.6287               781.1957               814.0756
 Red. masses --      6.7046                 1.5038                 2.0062
 Frc consts  --      2.2615                 0.5407                 0.7834
 IR Inten    --    128.1231               103.8196                20.6239

                     31                     32                     33
                      A                      A                      A
 Frequencies --    829.9972               860.7629               949.4221
 Red. masses --      5.6216                 1.2560                 6.9429
 Frc consts  --      2.2817                 0.5483                 3.6873
 IR Inten    --    348.9357                 0.1419                48.1140

                     34                     35                     36
                      A                      A                      A
 Frequencies --    953.6624               988.0308              1006.2784
 Red. masses --      1.3765                 1.3586                 1.3589
 Frc consts  --      0.7376                 0.7814                 0.8107
 IR Inten    --      2.7349                 0.0656               134.5764

                     37                     38                     39
                      A                      A                      A
 Frequencies --   1013.5585              1017.8193              1020.6849
 Red. masses --      1.3436                 6.0095                 1.2913
 Frc consts  --      0.8133                 3.6680                 0.7926
 IR Inten    --     12.3175                 2.3080                 0.0153

                     40                     41                     42
                      A                      A                      A
 Frequencies --   1039.2544              1056.7278              1071.6409
 Red. masses --      4.6898                 2.9991                 1.8545
 Frc consts  --      2.9843                 1.9732                 1.2548
 IR Inten    --     38.8313                 4.9125                44.6554

                     43                     44                     45
                      A                      A                      A
 Frequencies --   1116.6111              1124.6955              1165.8934
 Red. masses --      1.6022                11.3251                 4.5277
 Frc consts  --      1.1770                 8.4404                 3.6261
 IR Inten    --     18.3902               332.1255                55.4879

                     46                     47                     48
                      A                      A                      A
 Frequencies --   1195.8668              1209.7127              1225.9569
 Red. masses --      1.0945                 1.1558                 1.6016
 Frc consts  --      0.9222                 0.9965                 1.4183
 IR Inten    --      0.5524                50.7468                81.1163

                     49                     50                     51
                      A                      A                      A
 Frequencies --   1285.4425              1316.7190              1345.8596
 Red. masses --      3.5269                 5.7591                 1.8521
 Frc consts  --      3.4336                 5.8829                 1.9766
 IR Inten    --     35.2968               203.8257                12.6529

                     52                     53                     54
                      A                      A                      A
 Frequencies --   1351.8272              1374.5911              1388.2579
 Red. masses --      2.1342                 2.3524                 1.1955
 Frc consts  --      2.2979                 2.6189                 1.3575
 IR Inten    --     34.6404                 5.6533                14.6086

                     55                     56                     57
                      A                      A                      A
 Frequencies --   1404.6385              1470.4708              1473.1484
 Red. masses --      2.0415                 1.0576                 1.0560
 Frc consts  --      2.3732                 1.3473                 1.3502
 IR Inten    --     85.6620                11.6857                 9.8919

                     58                     59                     60
                      A                      A                      A
 Frequencies --   1497.2208              1514.9311              1540.6398
 Red. masses --      2.2759                 2.9525                 2.3897
 Frc consts  --      3.0059                 3.9923                 3.3420
 IR Inten    --     23.8257              1029.4757               116.1905

                     61                     62                     63
                      A                      A                      A
 Frequencies --   1609.9822              1640.6666              1654.1454
 Red. masses --      5.9275                 5.7106                 6.5143
 Frc consts  --      9.0525                 9.0568                10.5018
 IR Inten    --      0.6980               264.9972               941.2249

                     64                     65                     66
                      A                      A                      A
 Frequencies --   1662.0364              3111.7749              3215.3061
 Red. masses --      5.5345                 1.0288                 1.1073
 Frc consts  --      9.0076                 5.8697                 6.7445
 IR Inten    --     35.8416                 1.1415                 1.9561

                     67                     68                     69
                      A                      A                      A
 Frequencies --   3215.3644              3222.0804              3228.6474
 Red. masses --      1.0864                 1.0886                 1.1094
 Frc consts  --      6.6173                 6.6589                 6.8138
 IR Inten    --      0.4104                 3.3175                 0.8330

                     70                     71                     72
                      A                      A                      A
 Frequencies --   3229.0119              3236.7525              3242.7579
 Red. masses --      1.0922                 1.0954                 1.0965
 Frc consts  --      6.7097                 6.7617                 6.7932
 IR Inten    --     27.4404                31.3952                14.4781

                     73                     74                     75
                      A                      A                      A
 Frequencies --   3339.9909              3522.7633              3556.0020
 Red. masses --      1.0989                 1.0788                 1.0868
 Frc consts  --      7.2224                 7.8878                 8.0971
 IR Inten    --     12.9642               391.6016               617.1660

 - Thermochemistry -
 -------------------
 Temperature   298.150 Kelvin.  Pressure   1.00000 Atm.
 Atom     1 has atomic number  8 and mass  15.99491

 Molecular mass:   239.04904 amu.
 Principal axes and moments of inertia in atomic units:
                           1         2         3
     Eigenvalues --   942.889059963.26902**********
           X            0.99987  -0.01328   0.00890
           Y            0.01433   0.99122  -0.13141
           Z           -0.00708   0.13152   0.99129
 This molecule is an asymmetric top.
 Rotational symmetry number  1.
 Warning -- assumption of classical behavior for rotation
           may cause significant error
 Rotational temperatures (Kelvin)      0.09186     0.00869     0.00826
 Rotational constants (GHZ):           1.91405     0.18114     0.17220
 Zero-point vibrational energy     542756.0 (Joules/Mol)
                                  129.72179 (Kcal/Mol)
 Warning -- explicit consideration of  21 degrees of freedom as
           vibrations may cause significant error
 Vibrational temperatures:     33.36    51.69    74.28   119.80   135.86
          (Kelvin)            203.75   244.39   310.07   323.14   344.95
                              398.72   410.47   492.15   564.15   572.64
                              586.52   632.95   659.77   692.26   706.04
                              761.61   906.18   933.96   998.78  1003.85
                             1013.06  1058.28  1088.62  1123.97  1171.27
                             1194.18  1238.45  1366.01  1372.11  1421.56
                             1447.81  1458.28  1464.41  1468.54  1495.26
                             1520.40  1541.85  1606.55  1618.19  1677.46
                             1720.59  1740.51  1763.88  1849.47  1894.46
                             1936.39  1944.98  1977.73  1997.39  2020.96
                             2115.68  2119.53  2154.17  2179.65  2216.64
                             2316.41  2360.55  2379.95  2391.30  4477.15
                             4626.11  4626.19  4635.86  4645.30  4645.83
                             4656.96  4665.61  4805.50  5068.47  5116.29

 Zero-point correction=                           0.206725 (Hartree/Particle)
 Thermal correction to Energy=                    0.221548
 Thermal correction to Enthalpy=                  0.222492
 Thermal correction to Gibbs Free Energy=         0.162965
 Sum of electronic and zero-point Energies=          -1120.592276
 Sum of electronic and thermal Energies=             -1120.577453
 Sum of electronic and thermal Enthalpies=           -1120.576509
 Sum of electronic and thermal Free Energies=        -1120.636035

                     E (Thermal)             CV                S
                      KCal/Mol        Cal/Mol-Kelvin    Cal/Mol-Kelvin
 Total                  139.023             55.706            125.284
 Electronic               0.000              0.000              0.000
 Translational            0.889              2.981             42.316
 Rotational               0.889              2.981             32.954
 Vibrational            137.246             49.744             50.014
 Vibration     1          0.593              1.985              6.340
 Vibration     2          0.594              1.982              5.472
 Vibration     3          0.596              1.977              4.754
 Vibration     4          0.600              1.961              3.812
 Vibration     5          0.603              1.953              3.566
 Vibration     6          0.615              1.912              2.782
 Vibration     7          0.625              1.880              2.437
 Vibration     8          0.645              1.817              1.997
 Vibration     9          0.649              1.804              1.922
 Vibration    10          0.657              1.780              1.805
 Vibration    11          0.678              1.716              1.551
 Vibration    12          0.683              1.701              1.502
 Vibration    13          0.721              1.591              1.203
 Vibration    14          0.760              1.487              0.992
 Vibration    15          0.764              1.474              0.970
 Vibration    16          0.772              1.454              0.935
 Vibration    17          0.800              1.383              0.827
 Vibration    18          0.817              1.342              0.770
 Vibration    19          0.837              1.292              0.707
 Vibration    20          0.847              1.271              0.682
 Vibration    21          0.884              1.185              0.589

                           ! Non-Optimized Parameters !
 Normal termination of Gaussian 16 at Thu Sep 24 05:16:23 2020.

 ----------------------------------------------------------------------
 #p b3lyp/6-31G(d) scrf=(iefpcm,read,solvent=water) geom=allcheck guess
 =read
 ----------------------------------------------------------------------

 Structure from the checkpoint file:  "SM41_m1.b.4.pdb.xyz.mst.b.w.chk"
 -------------------
 SM41_m1.b.4.pdb.xyz
 -------------------
 Charge =  1 Multiplicity = 1

 SCF Done:  E(RB3LYP) =  -1120.79896405     A.U. after    7 cycles
 Normal termination of Gaussian 16 at Thu Sep 24 05:16:52 2020.

 -----------------------------
 #p B3LYP/6-31G* geom=allcheck
 -----------------------------

 Structure from the checkpoint file:  "SM41_m1.b.4.pdb.xyz.mst.b.w.chk"
 -------------------
 SM41_m1.b.4.pdb.xyz
 -------------------
 Charge =  1 Multiplicity = 1

 SCF Done:  E(RB3LYP) =  -1120.70144604     A.U. after   15 cycles
 Normal termination of Gaussian 16 at Thu Sep 24 05:17:22 2020.
 Gaussian 16:  ES64L-G16RevB.01 20-Dec-2017

 ----------------------------------------------------------------------
 #p mp2/aug-cc-pVDZ scf=(MaxCycle=2000,NoVarAcc,NoIncFock) maxdisk=120G
 B geom=allcheck
 ----------------------------------------------------------------------

 Structure from the checkpoint file:  "SM41_m1.b.4.pdb.xyz.mst.b.w.chk"
 -------------------
 SM41_m1.b.4.pdb.xyz
 -------------------
 Charge =  1 Multiplicity = 1

                         Standard orientation:
 ---------------------------------------------------------------------
 Center     Atomic      Atomic             Coordinates (Angstroms)
 Number     Number       Type             X           Y           Z
 ---------------------------------------------------------------------
      1          8           0       -4.521637    0.930421   -0.900549
      2         16           0       -3.642241    0.043082   -0.146244
      3          7           0       -2.149441    0.870120   -0.024388
      4          6           0       -0.913401    0.311433   -0.019822
      5          7           0       -0.656347   -0.995150   -0.065433
      6          8           0        0.696370   -1.217553   -0.041739
      7          6           0        1.284631    0.006930    0.005657
      8          6           0        2.735905    0.038582    0.015863
      9          6           0        3.398180    1.277796    0.017816
     10          6           0        4.787938    1.319903    0.021743
     11          6           0        5.525107    0.132414    0.023333
     12          6           0        4.868985   -1.101151    0.021263
     13          6           0        3.479077   -1.153264    0.017609
     14          6           0        0.326990    0.987682    0.025872
     15          6           0       -4.203687   -0.073772    1.545727
     16          8           0       -3.303844   -1.290363   -0.651408
     17          1           0        2.826870    2.199315    0.011984
     18          1           0        5.295976    2.277667    0.021855
     19          1           0        6.609036    0.168586    0.025231
     20          1           0        5.440581   -2.022377    0.022082
     21          1           0        2.968110   -2.108392    0.015584
     22          1           0        0.468695    2.053931    0.065491
     23          1           0       -4.331317    0.934392    1.937384
     24          1           0       -3.463724   -0.634032    2.115456
     25          1           0       -5.157113   -0.603211    1.520932
     26          1           0       -2.202701    1.888878    0.013769
     27          1           0       -1.243495   -1.828218   -0.081908
 ---------------------------------------------------------------------

 SCF Done:  E(RHF) =  -1115.84133970     A.U. after   16 cycles
 E2 =    -0.2429762391D+01 EUMP2 =    -0.11182711020925D+04

 The electronic state is 1-A.
 Alpha  occ. eigenvalues --  -92.38906 -20.85393 -20.71886 -20.71083 -15.86029
 Alpha  occ. eigenvalues --  -15.81004 -11.56795 -11.52670 -11.43020 -11.41906
 Alpha  occ. eigenvalues --  -11.40019 -11.39153 -11.38836 -11.38013 -11.37043
 Alpha  occ. eigenvalues --  -11.36931  -9.35660  -7.04191  -7.04167  -7.03990
 Alpha  occ. eigenvalues --   -1.71234  -1.61936  -1.49716  -1.47136  -1.36820
 Alpha  occ. eigenvalues --   -1.30799  -1.27236  -1.19610  -1.17326  -1.15621
 Alpha  occ. eigenvalues --   -1.06707  -1.04948  -1.02477  -0.96520  -0.95514
 Alpha  occ. eigenvalues --   -0.94237  -0.88537  -0.87855  -0.86628  -0.85283
 Alpha  occ. eigenvalues --   -0.82841  -0.80479  -0.80069  -0.79266  -0.77543
 Alpha  occ. eigenvalues --   -0.75509  -0.75167  -0.74420  -0.72920  -0.72265
 Alpha  occ. eigenvalues --   -0.72055  -0.66193  -0.65640  -0.64880  -0.64312
 Alpha  occ. eigenvalues --   -0.62907  -0.62379  -0.61546  -0.59620  -0.56374
 Alpha  occ. eigenvalues --   -0.47005  -0.46541
 Alpha virt. eigenvalues --   -0.09557  -0.07750  -0.06017  -0.05279  -0.04119
 Alpha virt. eigenvalues --   -0.03663  -0.03346  -0.02540  -0.02276  -0.02136
 Alpha virt. eigenvalues --   -0.01606  -0.00933  -0.00608  -0.00186   0.00243

 Mulliken charges:
               1
     1  O   -1.053648
     2  S    2.686474
     3  N   -0.850763
     4  C    0.113003
     5  N    0.003263
     6  O   -1.077851
     7  C   -0.249186
     8  C    1.651684
     9  C    0.570411
    10  C    0.101034
    11  C    0.502085
    12  C    0.259844
    13  C    0.337543
    14  C    1.922291
    15  C    0.104540
    16  O   -1.115893
    17  H   -0.568154
    18  H   -0.460338
    19  H   -0.406710
    20  H   -0.422834
    21  H   -0.655635
    22  H   -0.554174
    23  H    0.045636
    24  H    0.027859
    25  H    0.089759
    26  H   -0.053100
    27  H    0.052858
 Sum of Mulliken charges =   1.00000

 Dipole moment (field-independent basis, Debye):
    X=              1.8655    Y=              1.6543    Z=              4.6273  Tot=              5.2563
 Quadrupole moment (field-independent basis, Debye-Ang):
   XX=            -43.5906   YY=            -82.7646   ZZ=           -100.3950
   XY=              0.6347   XZ=            -20.2692   YZ=              0.0293

 Normal termination of Gaussian 16 at Thu Sep 24 05:32:34 2020.
