 Gaussian 16, Revision B.01,

 ----------------------------------------------------------------------
 #p b3lyp/6-31G(d) opt freq NoSymm scf=(MaxCycle=2000,NoVarAcc,NoIncFoc
 k) scrf=(iefpcm,read,solvent=water)
 ----------------------------------------------------------------------

 -------------------
 SM41_m1.b.9.pdb.xyz
 -------------------
 Symbolic Z-matrix:
 Charge =  1 Multiplicity = 1

 SCF Done:  E(RB3LYP) =  -1120.76717730     A.U. after   14 cycles
 SCF Done:  E(RB3LYP) =  -1120.79146306     A.U. after   12 cycles
 SCF Done:  E(RB3LYP) =  -1120.79622446     A.U. after   11 cycles
 SCF Done:  E(RB3LYP) =  -1120.79740517     A.U. after   10 cycles
 SCF Done:  E(RB3LYP) =  -1120.79630638     A.U. after   13 cycles
 SCF Done:  E(RB3LYP) =  -1120.79831490     A.U. after   11 cycles
 SCF Done:  E(RB3LYP) =  -1120.79850960     A.U. after    9 cycles
 SCF Done:  E(RB3LYP) =  -1120.79883650     A.U. after   11 cycles
 SCF Done:  E(RB3LYP) =  -1120.79817495     A.U. after   11 cycles
 SCF Done:  E(RB3LYP) =  -1120.79890394     A.U. after   10 cycles
 SCF Done:  E(RB3LYP) =  -1120.79898533     A.U. after    8 cycles
 SCF Done:  E(RB3LYP) =  -1120.79898961     A.U. after    8 cycles
 SCF Done:  E(RB3LYP) =  -1120.79898874     A.U. after    7 cycles
 SCF Done:  E(RB3LYP) =  -1120.79898676     A.U. after    7 cycles
 SCF Done:  E(RB3LYP) =  -1120.79898619     A.U. after    7 cycles
 SCF Done:  E(RB3LYP) =  -1120.79898673     A.U. after    7 cycles
 Optimization completed.
    -- Stationary point found.
 Normal termination of Gaussian 16 at Thu Sep 24 04:55:03 2020.

 --------------------------------------------------------------------
 #P Geom=AllCheck Guess=TCheck SCRF=Check GenChk RB3LYP/6-31G(d) Freq
 --------------------------------------------------------------------

 Structure from the checkpoint file:  "SM41_m1.b.9.pdb.xyz.mst.b.w.chk"
 -------------------
 SM41_m1.b.9.pdb.xyz
 -------------------
 Charge =  1 Multiplicity = 1

 SCF Done:  E(RB3LYP) =  -1120.79898673     A.U. after    1 cycles

  Exact polarizability: 321.590  -7.098 187.474  -4.035  15.740  88.666
 Approx polarizability: 328.408 -15.570 239.410  -0.944  21.378 104.815

 ******    1 imaginary frequencies (negative Signs) ******

                      1                      2                      3
                      A                      A                      A
 Frequencies --    -31.6325                 9.1907                34.4445
 Red. masses --      3.9520                 4.9822                 4.4948
 Frc consts  --      0.0023                 0.0002                 0.0031
 IR Inten    --     38.3823                 8.4985                 9.4428

                      4                      5                      6
                      A                      A                      A
 Frequencies --     80.7462                89.2706               104.7089
 Red. masses --      6.0355                 4.8277                 2.2378
 Frc consts  --      0.0232                 0.0227                 0.0145
 IR Inten    --      5.7120                18.4995                37.2961

                      7                      8                      9
                      A                      A                      A
 Frequencies --    163.1082               212.9206               220.8056
 Red. masses --      6.1351                 2.6770                 1.4300
 Frc consts  --      0.0962                 0.0715                 0.0411
 IR Inten    --      6.6435                16.9461                 6.1399

                     10                     11                     12
                      A                      A                      A
 Frequencies --    239.4685               274.5830               283.2107
 Red. masses --      3.9936                 4.5319                 5.9446
 Frc consts  --      0.1349                 0.2013                 0.2809
 IR Inten    --      5.6280                 4.9711                 2.5755

                     13                     14                     15
                      A                      A                      A
 Frequencies --    342.1907               385.9419               395.0568
 Red. masses --      4.2962                 2.7309                 5.7129
 Frc consts  --      0.2964                 0.2397                 0.5253
 IR Inten    --      2.4167                92.0492                16.3286

                     16                     17                     18
                      A                      A                      A
 Frequencies --    408.3809               435.7377               457.8635
 Red. masses --      2.9282                 1.2196                 5.3933
 Frc consts  --      0.2877                 0.1364                 0.6662
 IR Inten    --      0.5507               224.4588                33.5986

                     19                     20                     21
                      A                      A                      A
 Frequencies --    480.6593               489.0517               529.0669
 Red. masses --      4.9855                 3.5095                 6.6492
 Frc consts  --      0.6786                 0.4945                 1.0966
 IR Inten    --     28.6277                20.3361               135.5803

                     22                     23                     24
                      A                      A                      A
 Frequencies --    629.8863               647.9545               694.2964
 Red. masses --      6.4665                 5.9199                 6.4013
 Frc consts  --      1.5116                 1.4644                 1.8181
 IR Inten    --      0.3957                 7.5007                29.5336

                     25                     26                     27
                      A                      A                      A
 Frequencies --    699.0414               704.0539               733.5518
 Red. masses --      1.6953                 3.3834                 6.3918
 Frc consts  --      0.4881                 0.9881                 2.0264
 IR Inten    --     33.8823                 0.4078                35.6833

                     28                     29                     30
                      A                      A                      A
 Frequencies --    757.8763               782.0243               815.4328
 Red. masses --      6.8216                 1.5115                 1.9324
 Frc consts  --      2.3085                 0.5446                 0.7570
 IR Inten    --    119.7214               100.6169                21.3982

                     31                     32                     33
                      A                      A                      A
 Frequencies --    829.1089               862.4307               949.5095
 Red. masses --      5.5841                 1.2546                 6.8915
 Frc consts  --      2.2617                 0.5498                 3.6607
 IR Inten    --    344.9115                 0.3329                47.8136

                     34                     35                     36
                      A                      A                      A
 Frequencies --    955.2610               988.6647              1005.2020
 Red. masses --      1.3751                 1.3583                 1.3565
 Frc consts  --      0.7393                 0.7822                 0.8076
 IR Inten    --      2.9288                 0.0105               114.4172

                     37                     38                     39
                      A                      A                      A
 Frequencies --   1014.7674              1017.8374              1020.3165
 Red. masses --      1.3478                 5.9967                 1.2901
 Frc consts  --      0.8177                 3.6603                 0.7913
 IR Inten    --     37.2586                 1.6352                 0.0240

                     40                     41                     42
                      A                      A                      A
 Frequencies --   1038.7588              1054.9365              1070.5283
 Red. masses --      4.5431                 3.0290                 1.8394
 Frc consts  --      2.8882                 1.9861                 1.2420
 IR Inten    --     38.9550                 5.0006                43.2778

                     43                     44                     45
                      A                      A                      A
 Frequencies --   1114.5585              1124.4806              1165.2115
 Red. masses --      1.5794                11.9846                 4.4306
 Frc consts  --      1.1560                 8.9285                 3.5442
 IR Inten    --     14.6729               340.7946                57.0297

                     46                     47                     48
                      A                      A                      A
 Frequencies --   1193.6727              1208.1407              1223.9081
 Red. masses --      1.1057                 1.1758                 1.5688
 Frc consts  --      0.9282                 1.0112                 1.3846
 IR Inten    --      5.7206                57.5381                64.8122

                     49                     50                     51
                      A                      A                      A
 Frequencies --   1285.4533              1316.7343              1344.6305
 Red. masses --      3.5417                 5.4156                 1.8699
 Frc consts  --      3.4481                 5.5322                 1.9919
 IR Inten    --     37.1388               200.1475                14.4131

                     52                     53                     54
                      A                      A                      A
 Frequencies --   1350.9675              1374.1232              1388.1971
 Red. masses --      2.0774                 2.4769                 1.1957
 Frc consts  --      2.2339                 2.7556                 1.3576
 IR Inten    --     34.8888                 6.4853                15.9978

                     55                     56                     57
                      A                      A                      A
 Frequencies --   1403.8074              1470.2268              1473.8119
 Red. masses --      2.0481                 1.0625                 1.0494
 Frc consts  --      2.3780                 1.3532                 1.3430
 IR Inten    --     85.8142                11.8495                 7.6217

                     58                     59                     60
                      A                      A                      A
 Frequencies --   1497.0940              1514.2457              1540.2412
 Red. masses --      2.2771                 2.9841                 2.4044
 Frc consts  --      3.0069                 4.0313                 3.3607
 IR Inten    --     24.0118              1032.0630               120.2086

                     61                     62                     63
                      A                      A                      A
 Frequencies --   1609.5859              1640.6992              1653.9047
 Red. masses --      5.9438                 5.7379                 6.5528
 Frc consts  --      9.0728                 9.1004                10.5608
 IR Inten    --      0.7516               282.1502               923.7306

                     64                     65                     66
                      A                      A                      A
 Frequencies --   1661.9603              3110.6954              3214.8503
 Red. masses --      5.5451                 1.0288                 1.1074
 Frc consts  --      9.0240                 5.8652                 6.7431
 IR Inten    --     33.5734                 1.1785                 2.1826

                     67                     68                     69
                      A                      A                      A
 Frequencies --   3215.2343              3222.5115              3226.7377
 Red. masses --      1.0864                 1.0886                 1.1098
 Frc consts  --      6.6169                 6.6606                 6.8080
 IR Inten    --      0.0777                 4.2473                 0.8181

                     70                     71                     72
                      A                      A                      A
 Frequencies --   3229.2068              3235.5590              3242.0416
 Red. masses --      1.0917                 1.0952                 1.0973
 Frc consts  --      6.7073                 6.7555                 6.7951
 IR Inten    --     22.5222                30.0371                19.4722

                     73                     74                     75
                      A                      A                      A
 Frequencies --   3341.8108              3524.5765              3552.7004
 Red. masses --      1.0987                 1.0789                 1.0870
 Frc consts  --      7.2290                 7.8964                 8.0834
 IR Inten    --     12.7766               402.6177               609.2932

 - Thermochemistry -
 -------------------
 Temperature   298.150 Kelvin.  Pressure   1.00000 Atm.
 Atom     1 has atomic number  8 and mass  15.99491

 Molecular mass:   239.04904 amu.
 Principal axes and moments of inertia in atomic units:
                           1         2         3
     Eigenvalues --   944.232989951.78122**********
           X            0.99988  -0.01434   0.00640
           Y            0.01512   0.98915  -0.14610
           Z           -0.00424   0.14618   0.98925
 This molecule is an asymmetric top.
 Rotational symmetry number  1.
 Warning -- assumption of classical behavior for rotation
           may cause significant error
 Rotational temperatures (Kelvin)      0.09173     0.00870     0.00827
 Rotational constants (GHZ):           1.91133     0.18135     0.17240
    1 imaginary frequencies ignored.
 Zero-point vibrational energy     541785.3 (Joules/Mol)
                                  129.48979 (Kcal/Mol)
 Warning -- explicit consideration of  20 degrees of freedom as
           vibrations may cause significant error
 Vibrational temperatures:     13.22    49.56   116.18   128.44   150.65
          (Kelvin)            234.68   306.35   317.69   344.54   395.06
                              407.48   492.34   555.28   568.40   587.57
                              626.93   658.76   691.56   703.64   761.21
                              906.27   932.26   998.94  1005.76  1012.98
                             1055.42  1090.41  1125.16  1173.23  1192.90
                             1240.85  1366.13  1374.41  1422.47  1446.26
                             1460.02  1464.44  1468.01  1494.54  1517.82
                             1540.25  1603.60  1617.88  1676.48  1717.43
                             1738.24  1760.93  1849.48  1894.49  1934.62
                             1943.74  1977.06  1997.31  2019.77  2115.33
                             2120.49  2153.98  2178.66  2216.06  2315.84
                             2360.60  2379.60  2391.19  4475.60  4625.45
                             4626.01  4636.48  4642.56  4646.11  4655.25
                             4664.57  4808.12  5071.08  5111.54

 Zero-point correction=                           0.206355 (Hartree/Particle)
 Thermal correction to Energy=                    0.220505
 Thermal correction to Enthalpy=                  0.221450
 Thermal correction to Gibbs Free Energy=         0.162810
 Sum of electronic and zero-point Energies=          -1120.592632
 Sum of electronic and thermal Energies=             -1120.578481
 Sum of electronic and thermal Enthalpies=           -1120.577537
 Sum of electronic and thermal Free Energies=        -1120.636176

                     E (Thermal)             CV                S
                      KCal/Mol        Cal/Mol-Kelvin    Cal/Mol-Kelvin
 Total                  138.369             53.835            123.417
 Electronic               0.000              0.000              0.000
 Translational            0.889              2.981             42.316
 Rotational               0.889              2.981             32.953
 Vibrational            136.592             47.874             48.148
 Vibration     1          0.593              1.987              8.179
 Vibration     2          0.594              1.983              5.555
 Vibration     3          0.600              1.962              3.873
 Vibration     4          0.602              1.957              3.676
 Vibration     5          0.605              1.945              3.365
 Vibration     6          0.623              1.888              2.513
 Vibration     7          0.644              1.821              2.018
 Vibration     8          0.648              1.809              1.952
 Vibration     9          0.657              1.780              1.807
 Vibration    10          0.677              1.720              1.567
 Vibration    11          0.682              1.705              1.514
 Vibration    12          0.721              1.591              1.202
 Vibration    13          0.755              1.500              1.016
 Vibration    14          0.762              1.481              0.981
 Vibration    15          0.773              1.452              0.932
 Vibration    16          0.796              1.392              0.840
 Vibration    17          0.816              1.344              0.772
 Vibration    18          0.837              1.293              0.708
 Vibration    19          0.845              1.274              0.686
 Vibration    20          0.884              1.186              0.589

                           ! Non-Optimized Parameters !
 Normal termination of Gaussian 16 at Thu Sep 24 05:00:45 2020.

 ----------------------------------------------------------------------
 #p b3lyp/6-31G(d) scrf=(iefpcm,read,solvent=water) geom=allcheck guess
 =read
 ----------------------------------------------------------------------

 Structure from the checkpoint file:  "SM41_m1.b.9.pdb.xyz.mst.b.w.chk"
 -------------------
 SM41_m1.b.9.pdb.xyz
 -------------------
 Charge =  1 Multiplicity = 1

 SCF Done:  E(RB3LYP) =  -1120.79897873     A.U. after    7 cycles
 Normal termination of Gaussian 16 at Thu Sep 24 05:01:12 2020.

 -----------------------------
 #p B3LYP/6-31G* geom=allcheck
 -----------------------------

 Structure from the checkpoint file:  "SM41_m1.b.9.pdb.xyz.mst.b.w.chk"
 -------------------
 SM41_m1.b.9.pdb.xyz
 -------------------
 Charge =  1 Multiplicity = 1

 SCF Done:  E(RB3LYP) =  -1120.70139462     A.U. after   15 cycles
 Normal termination of Gaussian 16 at Thu Sep 24 05:01:40 2020.
 Gaussian 16:  ES64L-G16RevB.01 20-Dec-2017

 ----------------------------------------------------------------------
 #p mp2/aug-cc-pVDZ scf=(MaxCycle=2000,NoVarAcc,NoIncFock) maxdisk=120G
 B geom=allcheck
 ----------------------------------------------------------------------

 Structure from the checkpoint file:  "SM41_m1.b.9.pdb.xyz.mst.b.w.chk"
 -------------------
 SM41_m1.b.9.pdb.xyz
 -------------------
 Charge =  1 Multiplicity = 1

                         Standard orientation:
 ---------------------------------------------------------------------
 Center     Atomic      Atomic             Coordinates (Angstroms)
 Number     Number       Type             X           Y           Z
 ---------------------------------------------------------------------
      1          8           0       -4.543448    0.902265   -0.896674
      2         16           0       -3.642348    0.039165   -0.140121
      3          7           0       -2.149106    0.871457   -0.088916
      4          6           0       -0.914039    0.311505   -0.050603
      5          7           0       -0.660598   -0.996579   -0.041705
      6          8           0        0.691551   -1.221638   -0.010261
      7          6           0        1.282720    0.002169   -0.004525
      8          6           0        2.733688    0.034146    0.012779
      9          6           0        3.481302   -1.155250   -0.003709
     10          6           0        4.871303   -1.096481    0.004010
     11          6           0        5.522178    0.139591    0.028315
     12          6           0        4.780091    1.323975    0.046234
     13          6           0        3.390944    1.275275    0.038839
     14          6           0        0.327861    0.985628   -0.024035
     15          6           0       -4.156663   -0.026651    1.569800
     16          8           0       -3.314827   -1.308702   -0.613265
     17          1           0        2.975016   -2.113202   -0.025086
     18          1           0        5.447143   -2.014884   -0.010164
     19          1           0        6.605961    0.179987    0.032866
     20          1           0        5.283679    2.283899    0.065542
     21          1           0        2.814737    2.193203    0.052955
     22          1           0        0.473232    2.052078   -0.027154
     23          1           0       -4.267968    0.993023    1.935860
     24          1           0       -3.403752   -0.575003    2.134127
     25          1           0       -5.113073   -0.551035    1.587555
     26          1           0       -2.202478    1.890615   -0.070341
     27          1           0       -1.249528   -1.828304   -0.060916
 ---------------------------------------------------------------------

 SCF Done:  E(RHF) =  -1115.84139968     A.U. after   17 cycles
 E2 =    -0.2429749675D+01 EUMP2 =    -0.11182711493536D+04

 The electronic state is 1-A.
 Alpha  occ. eigenvalues --  -92.38907 -20.85433 -20.71883 -20.71078 -15.86055
 Alpha  occ. eigenvalues --  -15.81015 -11.56812 -11.52699 -11.43047 -11.41927
 Alpha  occ. eigenvalues --  -11.40044 -11.39165 -11.38885 -11.38040 -11.37069
 Alpha  occ. eigenvalues --  -11.36960  -9.35661  -7.04191  -7.04168  -7.03991
 Alpha  occ. eigenvalues --   -1.71269  -1.61940  -1.49718  -1.47161  -1.36838
 Alpha  occ. eigenvalues --   -1.30841  -1.27264  -1.19615  -1.17354  -1.15650
 Alpha  occ. eigenvalues --   -1.06729  -1.04978  -1.02504  -0.96545  -0.95546
 Alpha  occ. eigenvalues --   -0.94265  -0.88542  -0.87907  -0.86647  -0.85321
 Alpha  occ. eigenvalues --   -0.82844  -0.80499  -0.80078  -0.79310  -0.77568
 Alpha  occ. eigenvalues --   -0.75527  -0.75212  -0.74442  -0.72927  -0.72292
 Alpha  occ. eigenvalues --   -0.72066  -0.66197  -0.65636  -0.64876  -0.64340
 Alpha  occ. eigenvalues --   -0.62936  -0.62377  -0.61553  -0.59665  -0.56411
 Alpha  occ. eigenvalues --   -0.47033  -0.46564
 Alpha virt. eigenvalues --   -0.09596  -0.07758  -0.06002  -0.05283  -0.04184
 Alpha virt. eigenvalues --   -0.03669  -0.03319  -0.02534  -0.02270  -0.02154
 Alpha virt. eigenvalues --   -0.01666  -0.00935  -0.00615  -0.00239   0.00281

 Mulliken charges:
               1
     1  O   -1.052457
     2  S    2.675885
     3  N   -0.851917
     4  C    0.127548
     5  N    0.001935
     6  O   -1.077643
     7  C   -0.240850
     8  C    1.638851
     9  C    0.346117
    10  C    0.258047
    11  C    0.504644
    12  C    0.092225
    13  C    0.586226
    14  C    1.905408
    15  C    0.106800
    16  O   -1.115311
    17  H   -0.652154
    18  H   -0.423335
    19  H   -0.406698
    20  H   -0.461206
    21  H   -0.564885
    22  H   -0.559697
    23  H    0.047329
    24  H    0.027015
    25  H    0.088174
    26  H   -0.053652
    27  H    0.053602
 Sum of Mulliken charges =   1.00000

 Dipole moment (field-independent basis, Debye):
    X=              2.0063    Y=              1.7999    Z=              4.5021  Tot=              5.2473
 Quadrupole moment (field-independent basis, Debye-Ang):
   XX=            -44.6593   YY=            -82.7684   ZZ=           -100.1467
   XY=              0.0136   XZ=            -20.0868   YZ=              0.0543

 Normal termination of Gaussian 16 at Thu Sep 24 05:19:55 2020.
