 Gaussian 16, Revision B.01,

 ----------------------------------------------------------------------
 #p b3lyp/6-31G(d) opt freq NoSymm scf=(MaxCycle=2000,NoVarAcc,NoIncFoc
 k) scrf=(iefpcm,read,solvent=water)
 ----------------------------------------------------------------------

 -------------------
 SM41_m1.b.2.pdb.xyz
 -------------------
 Symbolic Z-matrix:
 Charge =  1 Multiplicity = 1

 SCF Done:  E(RB3LYP) =  -1120.76695229     A.U. after   14 cycles
 SCF Done:  E(RB3LYP) =  -1120.79103972     A.U. after   12 cycles
 SCF Done:  E(RB3LYP) =  -1120.79598678     A.U. after   11 cycles
 SCF Done:  E(RB3LYP) =  -1120.79750945     A.U. after   11 cycles
 SCF Done:  E(RB3LYP) =  -1120.79792502     A.U. after   11 cycles
 SCF Done:  E(RB3LYP) =  -1120.79826847     A.U. after   10 cycles
 SCF Done:  E(RB3LYP) =  -1120.79686749     A.U. after   13 cycles
 SCF Done:  E(RB3LYP) =  -1120.79894123     A.U. after   11 cycles
 SCF Done:  E(RB3LYP) =  -1120.79905151     A.U. after   10 cycles
 SCF Done:  E(RB3LYP) =  -1120.79905745     A.U. after   10 cycles
 SCF Done:  E(RB3LYP) =  -1120.79915631     A.U. after    8 cycles
 SCF Done:  E(RB3LYP) =  -1120.79916204     A.U. after    8 cycles
 SCF Done:  E(RB3LYP) =  -1120.79916693     A.U. after    8 cycles
 SCF Done:  E(RB3LYP) =  -1120.79916949     A.U. after    7 cycles
 SCF Done:  E(RB3LYP) =  -1120.79916894     A.U. after    7 cycles
 SCF Done:  E(RB3LYP) =  -1120.79916942     A.U. after    7 cycles
 Optimization completed.
    -- Stationary point found.
 Normal termination of Gaussian 16 at Thu Sep 24 04:58:22 2020.

 --------------------------------------------------------------------
 #P Geom=AllCheck Guess=TCheck SCRF=Check GenChk RB3LYP/6-31G(d) Freq
 --------------------------------------------------------------------

 Structure from the checkpoint file:  "SM41_m1.b.2.pdb.xyz.mst.b.w.chk"
 -------------------
 SM41_m1.b.2.pdb.xyz
 -------------------
 Charge =  1 Multiplicity = 1

 SCF Done:  E(RB3LYP) =  -1120.79916942     A.U. after    1 cycles

  Exact polarizability: 322.266  -6.113 181.813   1.601 -28.137  94.754
 Approx polarizability: 329.211 -15.355 231.431   0.153 -38.029 112.865

                      1                      2                      3
                      A                      A                      A
 Frequencies --     43.3408                54.4824                74.0278
 Red. masses --      4.7034                 5.3725                 5.7990
 Frc consts  --      0.0052                 0.0094                 0.0187
 IR Inten    --      3.9146                 4.2365                 1.2082

                      4                      5                      6
                      A                      A                      A
 Frequencies --     83.9696               102.3996               146.0703
 Red. masses --      6.7032                 5.4885                 6.3929
 Frc consts  --      0.0278                 0.0339                 0.0804
 IR Inten    --     14.2554                 3.5070                 4.8987

                      7                      8                      9
                      A                      A                      A
 Frequencies --    197.3664               225.3807               239.5306
 Red. masses --      3.0747                 1.1076                 3.5608
 Frc consts  --      0.0706                 0.0331                 0.1204
 IR Inten    --     34.0979                 1.9062                61.6529

                     10                     11                     12
                      A                      A                      A
 Frequencies --    240.4917               279.8657               294.8484
 Red. masses --      4.7845                 5.0979                 4.5169
 Frc consts  --      0.1630                 0.2353                 0.2314
 IR Inten    --      4.7766                 6.8565                 6.0334

                     13                     14                     15
                      A                      A                      A
 Frequencies --    352.0562               393.4115               404.1198
 Red. masses --      4.3688                 4.4866                 2.0236
 Frc consts  --      0.3190                 0.4091                 0.1947
 IR Inten    --      3.2010                43.2283               199.7761

                     16                     17                     18
                      A                      A                      A
 Frequencies --    409.3167               416.3664               460.4105
 Red. masses --      2.8887                 1.2916                 5.5204
 Frc consts  --      0.2852                 0.1319                 0.6895
 IR Inten    --      2.4706                93.9736                23.6600

                     19                     20                     21
                      A                      A                      A
 Frequencies --    480.1568               491.6045               531.3491
 Red. masses --      5.8434                 3.2288                 6.7027
 Frc consts  --      0.7937                 0.4597                 1.1150
 IR Inten    --     38.8345                47.1773               131.8510

                     22                     23                     24
                      A                      A                      A
 Frequencies --    629.6389               650.6851               694.4182
 Red. masses --      6.4542                 5.8541                 6.3648
 Frc consts  --      1.5076                 1.4603                 1.8083
 IR Inten    --      0.3815                10.2511                30.7575

                     25                     26                     27
                      A                      A                      A
 Frequencies --    701.0345               706.7697               732.6096
 Red. masses --      1.9677                 2.7911                 6.5784
 Frc consts  --      0.5697                 0.8214                 2.0803
 IR Inten    --     32.4469                 6.4326                35.1153

                     28                     29                     30
                      A                      A                      A
 Frequencies --    760.0742               783.8292               819.8227
 Red. masses --      6.9183                 1.5948                 1.7203
 Frc consts  --      2.3549                 0.5773                 0.6812
 IR Inten    --    119.0905                87.4433                29.5392

                     31                     32                     33
                      A                      A                      A
 Frequencies --    831.9039               863.0682               949.5760
 Red. masses --      5.6676                 1.2526                 6.7597
 Frc consts  --      2.3110                 0.5497                 3.5912
 IR Inten    --    359.4050                 0.0649                48.0312

                     34                     35                     36
                      A                      A                      A
 Frequencies --    955.7425               989.4722              1011.6454
 Red. masses --      1.3793                 1.3558                 1.3517
 Frc consts  --      0.7423                 0.7821                 0.8150
 IR Inten    --      2.8272                 0.0826               134.7826

                     37                     38                     39
                      A                      A                      A
 Frequencies --   1017.8412              1020.8066              1025.7364
 Red. masses --      5.8983                 1.2870                 1.3157
 Frc consts  --      3.6003                 0.7902                 0.8156
 IR Inten    --      1.9865                 0.0161                 9.7057

                     40                     41                     42
                      A                      A                      A
 Frequencies --   1039.0867              1058.2857              1071.8643
 Red. masses --      4.9006                 2.9281                 1.8969
 Frc consts  --      3.1175                 1.9321                 1.2840
 IR Inten    --     44.4349                 4.9146                47.1194

                     43                     44                     45
                      A                      A                      A
 Frequencies --   1116.3251              1123.7848              1164.6826
 Red. masses --      1.6101                11.2511                 4.4352
 Frc consts  --      1.1822                 8.3717                 3.5447
 IR Inten    --     22.2509               350.9503                47.9117

                     46                     47                     48
                      A                      A                      A
 Frequencies --   1195.3351              1211.2075              1235.1597
 Red. masses --      1.0923                 1.1368                 1.6532
 Frc consts  --      0.9195                 0.9826                 1.4860
 IR Inten    --      0.2522                36.3644               112.5764

                     49                     50                     51
                      A                      A                      A
 Frequencies --   1286.6352              1317.7451              1352.2733
 Red. masses --      3.5010                 6.7262                 2.4805
 Frc consts  --      3.4147                 6.8815                 2.6725
 IR Inten    --     36.6698               221.9986                33.7760

                     52                     53                     54
                      A                      A                      A
 Frequencies --   1355.0260              1374.3586              1399.7614
 Red. masses --      1.6720                 2.3293                 1.1838
 Frc consts  --      1.8088                 2.5922                 1.3666
 IR Inten    --     14.5734                 7.4437                11.8222

                     55                     56                     57
                      A                      A                      A
 Frequencies --   1411.9096              1471.6266              1477.9716
 Red. masses --      2.1135                 1.0539                 1.0550
 Frc consts  --      2.4824                 1.3448                 1.3578
 IR Inten    --     67.1851                 8.9666                 9.6993

                     58                     59                     60
                      A                      A                      A
 Frequencies --   1497.0562              1521.7287              1543.4572
 Red. masses --      2.2966                 2.4978                 2.4079
 Frc consts  --      3.0326                 3.4078                 3.3797
 IR Inten    --     28.8038               880.6368               252.3416

                     61                     62                     63
                      A                      A                      A
 Frequencies --   1610.5641              1640.4829              1653.3056
 Red. masses --      5.8070                 5.6870                 6.4046
 Frc consts  --      8.8748                 9.0173                10.3146
 IR Inten    --      0.8071               284.4270               920.8025

                     64                     65                     66
                      A                      A                      A
 Frequencies --   1661.9924              3108.7325              3212.0127
 Red. masses --      5.5439                 1.0289                 1.1079
 Frc consts  --      9.0224                 5.8585                 6.7343
 IR Inten    --     39.1020                 1.1623                 2.1230

                     67                     68                     69
                      A                      A                      A
 Frequencies --   3215.5590              3222.8229              3226.4344
 Red. masses --      1.0865                 1.0885                 1.1092
 Frc consts  --      6.6188                 6.6613                 6.8030
 IR Inten    --      1.0986                 2.0145                 0.7946

                     70                     71                     72
                      A                      A                      A
 Frequencies --   3229.0054              3238.5320              3243.3382
 Red. masses --      1.0924                 1.0952                 1.0963
 Frc consts  --      6.7106                 6.7676                 6.7943
 IR Inten    --     28.8057                31.6601                12.4765

                     73                     74                     75
                      A                      A                      A
 Frequencies --   3336.3516              3537.8494              3551.5960
 Red. masses --      1.0994                 1.0791                 1.0867
 Frc consts  --      7.2105                 7.9575                 8.0761
 IR Inten    --     13.2435               476.9606               517.6373

 - Thermochemistry -
 -------------------
 Temperature   298.150 Kelvin.  Pressure   1.00000 Atm.
 Atom     1 has atomic number  8 and mass  15.99491

 Molecular mass:   239.04904 amu.
 Principal axes and moments of inertia in atomic units:
                           1         2         3
     Eigenvalues --   946.147269956.08780**********
           X            0.99972  -0.02312   0.00580
           Y            0.02064   0.96145   0.27420
           Z           -0.01192  -0.27400   0.96165
 This molecule is an asymmetric top.
 Rotational symmetry number  1.
 Warning -- assumption of classical behavior for rotation
           may cause significant error
 Rotational temperatures (Kelvin)      0.09154     0.00870     0.00827
 Rotational constants (GHZ):           1.90746     0.18127     0.17236
 Zero-point vibrational energy     544175.9 (Joules/Mol)
                                  130.06115 (Kcal/Mol)
 Warning -- explicit consideration of  21 degrees of freedom as
           vibrations may cause significant error
 Vibrational temperatures:     62.36    78.39   106.51   120.81   147.33
          (Kelvin)            210.16   283.97   324.27   344.63   346.01
                              402.66   424.22   506.53   566.03   581.44
                              588.92   599.06   662.43   690.84   707.31
                              764.49   905.91   936.19   999.11  1008.63
                             1016.88  1054.06  1093.58  1127.76  1179.54
                             1196.92  1241.76  1366.23  1375.10  1423.63
                             1455.53  1464.45  1468.71  1475.81  1495.01
                             1522.64  1542.17  1606.14  1616.88  1675.72
                             1719.82  1742.66  1777.12  1851.18  1895.94
                             1945.62  1949.58  1977.40  2013.94  2031.42
                             2117.34  2126.47  2153.93  2189.43  2220.69
                             2317.24  2360.29  2378.74  2391.24  4472.77
                             4621.37  4626.47  4636.92  4642.12  4645.82
                             4659.53  4666.44  4800.27  5090.18  5109.95

 Zero-point correction=                           0.207266 (Hartree/Particle)
 Thermal correction to Energy=                    0.221824
 Thermal correction to Enthalpy=                  0.222768
 Thermal correction to Gibbs Free Energy=         0.164954
 Sum of electronic and zero-point Energies=          -1120.591904
 Sum of electronic and thermal Energies=             -1120.577345
 Sum of electronic and thermal Enthalpies=           -1120.576401
 Sum of electronic and thermal Free Energies=        -1120.634215

                     E (Thermal)             CV                S
                      KCal/Mol        Cal/Mol-Kelvin    Cal/Mol-Kelvin
 Total                  139.197             55.498            121.680
 Electronic               0.000              0.000              0.000
 Translational            0.889              2.981             42.316
 Rotational               0.889              2.981             32.956
 Vibrational            137.419             49.536             46.409
 Vibration     1          0.595              1.980              5.100
 Vibration     2          0.596              1.976              4.648
 Vibration     3          0.599              1.966              4.043
 Vibration     4          0.601              1.960              3.796
 Vibration     5          0.604              1.947              3.408
 Vibration     6          0.617              1.907              2.723
 Vibration     7          0.637              1.844              2.158
 Vibration     8          0.650              1.802              1.915
 Vibration     9          0.657              1.780              1.806
 Vibration    10          0.658              1.778              1.799
 Vibration    11          0.680              1.711              1.534
 Vibration    12          0.689              1.683              1.446
 Vibration    13          0.729              1.571              1.157
 Vibration    14          0.761              1.484              0.987
 Vibration    15          0.769              1.461              0.948
 Vibration    16          0.774              1.450              0.929
 Vibration    17          0.780              1.435              0.904
 Vibration    18          0.818              1.338              0.765
 Vibration    19          0.837              1.294              0.710
 Vibration    20          0.847              1.269              0.679
 Vibration    21          0.886              1.181              0.584

 Optimization completed.
    -- Stationary point found.
 Normal termination of Gaussian 16 at Thu Sep 24 05:04:33 2020.

 ----------------------------------------------------------------------
 #p b3lyp/6-31G(d) scrf=(iefpcm,read,solvent=water) geom=allcheck guess
 =read
 ----------------------------------------------------------------------

 Structure from the checkpoint file:  "SM41_m1.b.2.pdb.xyz.mst.b.w.chk"
 -------------------
 SM41_m1.b.2.pdb.xyz
 -------------------
 Charge =  1 Multiplicity = 1

 SCF Done:  E(RB3LYP) =  -1120.79898926     A.U. after    7 cycles
 Normal termination of Gaussian 16 at Thu Sep 24 05:05:02 2020.

 -----------------------------
 #p B3LYP/6-31G* geom=allcheck
 -----------------------------

 Structure from the checkpoint file:  "SM41_m1.b.2.pdb.xyz.mst.b.w.chk"
 -------------------
 SM41_m1.b.2.pdb.xyz
 -------------------
 Charge =  1 Multiplicity = 1

 SCF Done:  E(RB3LYP) =  -1120.70125613     A.U. after   15 cycles
 Normal termination of Gaussian 16 at Thu Sep 24 05:05:33 2020.
 Gaussian 16:  ES64L-G16RevB.01 20-Dec-2017

 ----------------------------------------------------------------------
 #p mp2/aug-cc-pVDZ scf=(MaxCycle=2000,NoVarAcc,NoIncFock) maxdisk=120G
 B geom=allcheck
 ----------------------------------------------------------------------

 Structure from the checkpoint file:  "SM41_m1.b.2.pdb.xyz.mst.b.w.chk"
 -------------------
 SM41_m1.b.2.pdb.xyz
 -------------------
 Charge =  1 Multiplicity = 1

                         Standard orientation:
 ---------------------------------------------------------------------
 Center     Atomic      Atomic             Coordinates (Angstroms)
 Number     Number       Type             X           Y           Z
 ---------------------------------------------------------------------
      1          8           0        3.348180   -1.293034   -0.667082
      2         16           0        3.648189    0.040599   -0.137757
      3          7           0        2.151443    0.868296   -0.119710
      4          6           0        0.915312    0.313829   -0.063114
      5          7           0        0.657646   -0.993820   -0.023579
      6          8           0       -0.695969   -1.212091   -0.007911
      7          6           0       -1.282349    0.013676   -0.008021
      8          6           0       -2.733082    0.043523    0.013809
      9          6           0       -3.400009    1.279579    0.050328
     10          6           0       -4.790052    1.314936    0.057267
     11          6           0       -5.522114    0.124594    0.028299
     12          6           0       -4.860880   -1.105856   -0.006305
     13          6           0       -3.470960   -1.151199   -0.013417
     14          6           0       -0.323499    0.993362   -0.036391
     15          6           0        4.096365   -0.078820    1.591007
     16          8           0        4.569127    0.935296   -0.831238
     17          1           0       -2.833346    2.203667    0.074009
     18          1           0       -5.302504    2.269695    0.085267
     19          1           0       -6.606214    0.156299    0.032646
     20          1           0       -5.428077   -2.029510   -0.029416
     21          1           0       -2.954165   -2.102670   -0.043499
     22          1           0       -0.461409    2.060863   -0.044194
     23          1           0        3.320088   -0.637805    2.112493
     24          1           0        4.197246    0.930032    1.988739
     25          1           0        5.048833   -0.609355    1.630499
     26          1           0        2.206500    1.887655   -0.098119
     27          1           0        1.235316   -1.826890   -0.132231
 ---------------------------------------------------------------------

 SCF Done:  E(RHF) =  -1115.84140026     A.U. after   16 cycles
 E2 =    -0.2429569821D+01 EUMP2 =    -0.11182709700858D+04

 The electronic state is 1-A.
 Alpha  occ. eigenvalues --  -92.38879 -20.85482 -20.71831 -20.71081 -15.86148
 Alpha  occ. eigenvalues --  -15.81013 -11.56878 -11.52799 -11.43071 -11.42008
 Alpha  occ. eigenvalues --  -11.40088 -11.39241 -11.38909 -11.38097 -11.37112
 Alpha  occ. eigenvalues --  -11.37002  -9.35628  -7.04158  -7.04136  -7.03958
 Alpha  occ. eigenvalues --   -1.71358  -1.61867  -1.49654  -1.47217  -1.36893
 Alpha  occ. eigenvalues --   -1.30872  -1.27335  -1.19534  -1.17409  -1.15701
 Alpha  occ. eigenvalues --   -1.06794  -1.05039  -1.02504  -0.96609  -0.95532
 Alpha  occ. eigenvalues --   -0.94290  -0.88458  -0.88100  -0.86638  -0.85366
 Alpha  occ. eigenvalues --   -0.82812  -0.80546  -0.80002  -0.79324  -0.77648
 Alpha  occ. eigenvalues --   -0.75564  -0.75277  -0.74410  -0.72989  -0.72329
 Alpha  occ. eigenvalues --   -0.72046  -0.66184  -0.65609  -0.64816  -0.64384
 Alpha  occ. eigenvalues --   -0.62983  -0.62331  -0.61514  -0.59825  -0.56459
 Alpha  occ. eigenvalues --   -0.47080  -0.46636
 Alpha virt. eigenvalues --   -0.09707  -0.07735  -0.05993  -0.05289  -0.04257
 Alpha virt. eigenvalues --   -0.03658  -0.03360  -0.02537  -0.02258  -0.02193
 Alpha virt. eigenvalues --   -0.01709  -0.00999  -0.00617  -0.00256   0.00264

 Mulliken charges:
               1
     1  O   -1.113930
     2  S    2.663828
     3  N   -0.856687
     4  C    0.139455
     5  N   -0.001627
     6  O   -1.070969
     7  C   -0.159482
     8  C    1.614107
     9  C    0.583224
    10  C    0.096097
    11  C    0.513710
    12  C    0.255189
    13  C    0.330807
    14  C    1.850161
    15  C    0.108290
    16  O   -1.050000
    17  H   -0.567616
    18  H   -0.460608
    19  H   -0.406319
    20  H   -0.422197
    21  H   -0.656165
    22  H   -0.555174
    23  H    0.023756
    24  H    0.050223
    25  H    0.084851
    26  H   -0.047779
    27  H    0.054854
 Sum of Mulliken charges =   1.00000

 Dipole moment (field-independent basis, Debye):
    X=             -2.2514    Y=              1.6661    Z=              4.3654  Tot=              5.1866
 Quadrupole moment (field-independent basis, Debye-Ang):
   XX=            -46.1053   YY=            -82.7963   ZZ=            -99.9047
   XY=             -0.6081   XZ=             19.7675   YZ=              0.0571

 Normal termination of Gaussian 16 at Thu Sep 24 05:24:44 2020.
