 Gaussian 16, Revision B.01,

 ----------------------------------------------------------------------
 #p b3lyp/6-31G(d) opt freq NoSymm scf=(MaxCycle=2000,NoVarAcc,NoIncFoc
 k) scrf=(iefpcm,read,solvent=water)
 ----------------------------------------------------------------------

 --------------------
 SM41_m0.n.10.pdb.xyz
 --------------------
 Symbolic Z-matrix:
 Charge =  0 Multiplicity = 1

 SCF Done:  E(RB3LYP) =  -1120.35883800     A.U. after   13 cycles
 SCF Done:  E(RB3LYP) =  -1120.35882216     A.U. after    9 cycles
 SCF Done:  E(RB3LYP) =  -1120.35881629     A.U. after    8 cycles
 SCF Done:  E(RB3LYP) =  -1120.35883738     A.U. after    9 cycles
 SCF Done:  E(RB3LYP) =  -1120.35883816     A.U. after    8 cycles
 SCF Done:  E(RB3LYP) =  -1120.35881577     A.U. after    9 cycles
 SCF Done:  E(RB3LYP) =  -1120.35881738     A.U. after    7 cycles
 SCF Done:  E(RB3LYP) =  -1120.35883734     A.U. after    9 cycles
 SCF Done:  E(RB3LYP) =  -1120.35883813     A.U. after    8 cycles
 SCF Done:  E(RB3LYP) =  -1120.35881565     A.U. after    9 cycles
 SCF Done:  E(RB3LYP) =  -1120.35882176     A.U. after    9 cycles
 SCF Done:  E(RB3LYP) =  -1120.35882095     A.U. after    7 cycles
 SCF Done:  E(RB3LYP) =  -1120.35883762     A.U. after    9 cycles
 SCF Done:  E(RB3LYP) =  -1120.35882092     A.U. after    9 cycles
 SCF Done:  E(RB3LYP) =  -1120.35883762     A.U. after    9 cycles
 SCF Done:  E(RB3LYP) =  -1120.35882095     A.U. after    9 cycles
 Optimization completed on the basis of negligible forces.
    -- Stationary point found.
 Normal termination of Gaussian 16 at Tue Sep 22 18:31:48 2020.

 --------------------------------------------------------------------
 #P Geom=AllCheck Guess=TCheck SCRF=Check GenChk RB3LYP/6-31G(d) Freq
 --------------------------------------------------------------------

 Structure from the checkpoint file:  "SM41_m0.n.10.pdb.xyz.mst.n.w.chk"
 --------------------
 SM41_m0.n.10.pdb.xyz
 --------------------
 Charge =  0 Multiplicity = 1

 SCF Done:  E(RB3LYP) =  -1120.35882095     A.U. after    1 cycles

  Exact polarizability: 302.515  -5.653 193.144   9.089  -5.709  88.928
 Approx polarizability: 314.905 -11.610 244.804  10.720 -12.114 109.110

                      1                      2                      3
                      A                      A                      A
 Frequencies --     25.6396                30.5847                65.0082
 Red. masses --      4.4216                 6.3968                 5.0370
 Frc consts  --      0.0017                 0.0035                 0.0125
 IR Inten    --      1.6731                 3.2579                 9.2461

                      4                      5                      6
                      A                      A                      A
 Frequencies --     82.8260                97.1874               131.7154
 Red. masses --      6.2421                 5.4555                 5.3539
 Frc consts  --      0.0252                 0.0304                 0.0547
 IR Inten    --     13.5099                 3.0817                 5.0310

                      7                      8                      9
                      A                      A                      A
 Frequencies --    218.3030               223.6087               239.8436
 Red. masses --      3.8126                 1.1580                 6.8473
 Frc consts  --      0.1071                 0.0341                 0.2321
 IR Inten    --      2.2240                 0.0150                 0.1825

                     10                     11                     12
                      A                      A                      A
 Frequencies --    270.3611               302.1062               343.3553
 Red. masses --      5.0203                 5.5187                 4.6245
 Frc consts  --      0.2162                 0.2968                 0.3212
 IR Inten    --      1.0994                 5.4131                 2.7411

                     13                     14                     15
                      A                      A                      A
 Frequencies --    366.6052               388.7843               393.4129
 Red. masses --      1.3018                 7.5985                 7.4906
 Frc consts  --      0.1031                 0.6767                 0.6831
 IR Inten    --    157.8849                18.4635                 4.4950

                     16                     17                     18
                      A                      A                      A
 Frequencies --    411.5092               461.5123               480.9413
 Red. masses --      2.9569                 4.6262                 7.8922
 Frc consts  --      0.2950                 0.5806                 1.0756
 IR Inten    --      0.0550                50.5245                81.3867

                     19                     20                     21
                      A                      A                      A
 Frequencies --    498.4074               525.2497               630.5389
 Red. masses --      4.1920                 6.2079                 6.4448
 Frc consts  --      0.6135                 1.0091                 1.5097
 IR Inten    --      6.2486               114.1616                 0.0146

                     22                     23                     24
                      A                      A                      A
 Frequencies --    661.9604               692.4009               701.8474
 Red. masses --      8.1698                 5.7675                 1.9064
 Frc consts  --      2.1092                 1.6291                 0.5533
 IR Inten    --      1.2999                22.7835                29.3594

                     25                     26                     27
                      A                      A                      A
 Frequencies --    706.3540               721.8815               778.2570
 Red. masses --      3.4584                 4.6070                 1.4334
 Frc consts  --      1.0166                 1.4145                 0.5115
 IR Inten    --     12.3714                26.5928               111.1741

                     28                     29                     30
                      A                      A                      A
 Frequencies --    796.2639               805.1562               851.5640
 Red. masses --      5.5126                 2.1652                 5.7873
 Frc consts  --      2.0593                 0.8270                 2.4726
 IR Inten    --     38.5521                 4.6933               278.8698

                     31                     32                     33
                      A                      A                      A
 Frequencies --    863.0130               944.1741               962.6645
 Red. masses --      1.2543                 1.3891                 8.7335
 Frc consts  --      0.5504                 0.7296                 4.7686
 IR Inten    --      0.0739                 3.1047                10.5872

                     34                     35                     36
                      A                      A                      A
 Frequencies --    974.3756               984.1499              1010.7041
 Red. masses --     10.0910                 1.3524                 1.3494
 Frc consts  --      5.6447                 0.7718                 0.8122
 IR Inten    --     61.6924                 0.0198                19.2667

                     37                     38                     39
                      A                      A                      A
 Frequencies --   1014.3261              1015.5592              1017.1011
 Red. masses --      1.2690                 1.5464                 4.3954
 Frc consts  --      0.7692                 0.9397                 2.6790
 IR Inten    --      0.0591                58.8574                 2.6342

                     40                     41                     42
                      A                      A                      A
 Frequencies --   1049.4118              1070.1943              1091.3391
 Red. masses --      2.4452                 2.6720                 3.3580
 Frc consts  --      1.5866                 1.8031                 2.3564
 IR Inten    --      5.4117                26.7938                50.2111

                     43                     44                     45
                      A                      A                      A
 Frequencies --   1110.1972              1117.3399              1188.7701
 Red. masses --      1.5947                 9.2073                 1.0954
 Frc consts  --      1.1581                 6.7726                 0.9120
 IR Inten    --     26.0532               337.4060                 0.2017

                     46                     47                     48
                      A                      A                      A
 Frequencies --   1202.6483              1221.3184              1288.5353
 Red. masses --      1.1769                 1.8079                 6.5012
 Frc consts  --      1.0029                 1.5888                 6.3597
 IR Inten    --     13.4219                30.5336               234.1270

                     49                     50                     51
                      A                      A                      A
 Frequencies --   1296.6711              1343.4482              1368.7424
 Red. masses --      6.1773                 2.3718                 2.3472
 Frc consts  --      6.1194                 2.5222                 2.5908
 IR Inten    --    120.3099                11.5133                 1.3993

                     52                     53                     54
                      A                      A                      A
 Frequencies --   1381.3549              1385.7548              1468.8760
 Red. masses --      1.3272                 1.5829                 1.0569
 Frc consts  --      1.4921                 1.7909                 1.3436
 IR Inten    --     10.8145                49.2163                 7.9183

                     55                     56                     57
                      A                      A                      A
 Frequencies --   1480.7026              1492.4461              1515.6798
 Red. masses --      1.0492                 2.3975                 3.6305
 Frc consts  --      1.3554                 3.1463                 4.9140
 IR Inten    --     13.6484                50.7429               685.6554

                     58                     59                     60
                      A                      A                      A
 Frequencies --   1519.3247              1556.0380              1629.7014
 Red. masses --      2.9434                 3.6043                 5.5023
 Frc consts  --      4.0032                 5.1418                 8.6102
 IR Inten    --     57.2226                34.7353               112.9231

                     61                     62                     63
                      A                      A                      A
 Frequencies --   1652.5142              1666.2822              3107.0300
 Red. masses --      6.4865                 6.0569                 1.0290
 Frc consts  --     10.4365                 9.9083                 5.8529
 IR Inten    --    107.7317                67.7406                 2.0914

                     64                     65                     66
                      A                      A                      A
 Frequencies --   3207.3971              3212.7952              3213.6811
 Red. masses --      1.0859                 1.1075                 1.0886
 Frc consts  --      6.5817                 6.7356                 6.6239
 IR Inten    --      1.6885                 2.1054                 6.5984

                     67                     68                     69
                      A                      A                      A
 Frequencies --   3221.8605              3221.9216              3229.9274
 Red. masses --      1.0927                 1.1091                 1.0961
 Frc consts  --      6.6829                 6.7837                 6.7376
 IR Inten    --     39.3617                 0.9909                38.9197

                     70                     71                     72
                      A                      A                      A
 Frequencies --   3238.6806              3319.6835              3528.5411
 Red. masses --      1.0946                 1.0987                 1.0777
 Frc consts  --      6.7644                 7.1340                 7.9055
 IR Inten    --     11.4930                 1.9007               227.4234

 - Thermochemistry -
 -------------------
 Temperature   298.150 Kelvin.  Pressure   1.00000 Atm.
 Atom     1 has atomic number  8 and mass  15.99491

 Molecular mass:   238.04121 amu.
 Principal axes and moments of inertia in atomic units:
                           1         2         3
     Eigenvalues --   952.882189801.94717**********
           X            0.99996   0.00521   0.00697
           Y           -0.00528   0.99994   0.00991
           Z           -0.00691  -0.00994   0.99993
 This molecule is an asymmetric top.
 Rotational symmetry number  1.
 Warning -- assumption of classical behavior for rotation
           may cause significant error
 Rotational temperatures (Kelvin)      0.09090     0.00884     0.00839
 Rotational constants (GHZ):           1.89398     0.18412     0.17483
 Zero-point vibrational energy     510135.9 (Joules/Mol)
                                  121.92541 (Kcal/Mol)
 Warning -- explicit consideration of  20 degrees of freedom as
           vibrations may cause significant error
 Vibrational temperatures:     36.89    44.00    93.53   119.17   139.83
          (Kelvin)            189.51   314.09   321.72   345.08   388.99
                              434.66   494.01   527.46   559.37   566.03
                              592.07   664.01   691.97   717.10   755.72
                              907.20   952.41   996.21  1009.80  1016.29
                             1038.63  1119.74  1145.65  1158.44  1225.21
                             1241.68  1358.46  1385.06  1401.91  1415.97
                             1454.18  1459.39  1461.16  1463.38  1509.87
                             1539.77  1570.19  1597.33  1607.60  1710.37
                             1730.34  1757.20  1853.91  1865.62  1932.92
                             1969.32  1987.46  1993.79  2113.38  2130.40
                             2147.30  2180.73  2185.97  2238.79  2344.78
                             2377.60  2397.41  4470.32  4614.73  4622.50
                             4623.77  4635.54  4635.63  4647.15  4659.74
                             4776.28  5076.78

 Zero-point correction=                           0.194301 (Hartree/Particle)
 Thermal correction to Energy=                    0.208554
 Thermal correction to Enthalpy=                  0.209498
 Thermal correction to Gibbs Free Energy=         0.151178
 Sum of electronic and zero-point Energies=          -1120.164520
 Sum of electronic and thermal Energies=             -1120.150267
 Sum of electronic and thermal Enthalpies=           -1120.149323
 Sum of electronic and thermal Free Energies=        -1120.207643

                     E (Thermal)             CV                S
                      KCal/Mol        Cal/Mol-Kelvin    Cal/Mol-Kelvin
 Total                  130.869             53.936            122.744
 Electronic               0.000              0.000              0.000
 Translational            0.889              2.981             42.303
 Rotational               0.889              2.981             32.933
 Vibrational            129.092             47.974             47.508
 Vibration     1          0.593              1.985              6.141
 Vibration     2          0.594              1.984              5.791
 Vibration     3          0.597              1.971              4.299
 Vibration     4          0.600              1.961              3.823
 Vibration     5          0.603              1.951              3.510
 Vibration     6          0.612              1.922              2.921
 Vibration     7          0.646              1.813              1.973
 Vibration     8          0.649              1.805              1.930
 Vibration     9          0.657              1.779              1.804
 Vibration    10          0.674              1.728              1.594
 Vibration    11          0.694              1.670              1.405
 Vibration    12          0.722              1.589              1.197
 Vibration    13          0.740              1.541              1.094
 Vibration    14          0.757              1.494              1.005
 Vibration    15          0.761              1.484              0.987
 Vibration    16          0.775              1.445              0.921
 Vibration    17          0.819              1.335              0.762
 Vibration    18          0.837              1.292              0.708
 Vibration    19          0.854              1.254              0.662
 Vibration    20          0.880              1.194              0.598

 Optimization completed.
    -- Stationary point found.
 Normal termination of Gaussian 16 at Tue Sep 22 18:37:32 2020.

 ----------------------------------------------------------------------
 #p b3lyp/6-31G(d) scrf=(iefpcm,read,solvent=water) geom=allcheck guess
 =read
 ----------------------------------------------------------------------

 Structure from the checkpoint file:  "SM41_m0.n.10.pdb.xyz.mst.n.w.chk"
 --------------------
 SM41_m0.n.10.pdb.xyz
 --------------------
 Charge =  0 Multiplicity = 1

 SCF Done:  E(RB3LYP) =  -1120.35881919     A.U. after    4 cycles
 Normal termination of Gaussian 16 at Tue Sep 22 18:37:54 2020.

 -----------------------------
 #p B3LYP/6-31G* geom=allcheck
 -----------------------------

 Structure from the checkpoint file:  "SM41_m0.n.10.pdb.xyz.mst.n.w.chk"
 --------------------
 SM41_m0.n.10.pdb.xyz
 --------------------
 Charge =  0 Multiplicity = 1

 SCF Done:  E(RB3LYP) =  -1120.33575201     A.U. after   15 cycles
 Normal termination of Gaussian 16 at Tue Sep 22 18:38:22 2020.
 Gaussian 16:  ES64L-G16RevB.01 20-Dec-2017

 ----------------------------------------------------------------------
 #p mp2/aug-cc-pVDZ scf=(MaxCycle=2000,NoVarAcc,NoIncFock) maxdisk=120G
 B geom=allcheck
 ----------------------------------------------------------------------

 Structure from the checkpoint file:  "SM41_m0.n.10.pdb.xyz.mst.n.w.chk"
 --------------------
 SM41_m0.n.10.pdb.xyz
 --------------------
 Charge =  0 Multiplicity = 1

                         Standard orientation:
 ---------------------------------------------------------------------
 Center     Atomic      Atomic             Coordinates (Angstroms)
 Number     Number       Type             X           Y           Z
 ---------------------------------------------------------------------
      1          8           0       -3.377175   -0.534139    1.500686
      2         16           0       -3.606150    0.119293    0.205564
      3          7           0       -2.194031    0.870067   -0.360686
      4          6           0       -0.928900    0.303853   -0.231354
      5          7           0       -0.760126   -1.004390   -0.177365
      6          8           0        0.629580   -1.180691   -0.096874
      7          6           0        1.243111    0.027264   -0.114947
      8          6           0        2.699434    0.039897   -0.034602
      9          6           0        3.397396    1.258029   -0.084066
     10          6           0        4.786984    1.270587   -0.002498
     11          6           0        5.494677    0.072558    0.128301
     12          6           0        4.805105   -1.141152    0.176931
     13          6           0        3.415208   -1.160795    0.096210
     14          6           0        0.300768    1.014544   -0.199635
     15          6           0       -3.881124   -1.143306   -1.028886
     16          8           0       -4.626494    1.170584    0.109318
     17          1           0       -2.241899    1.883525   -0.248908
     18          1           0        2.851993    2.189814   -0.186694
     19          1           0        5.318378    2.215444   -0.041374
     20          1           0        6.577450    0.085650    0.191886
     21          1           0        5.349935   -2.073502    0.278745
     22          1           0        2.876485   -2.099895    0.135187
     23          1           0        0.443672    2.082073   -0.229311
     24          1           0       -2.991841   -1.772614   -1.058191
     25          1           0       -4.055794   -0.657983   -1.987792
     26          1           0       -4.754125   -1.715845   -0.713976
 ---------------------------------------------------------------------

 SCF Done:  E(RHF) =  -1115.47237105     A.U. after   17 cycles
 E2 =    -0.2451644238D+01 EUMP2 =    -0.11179240152871D+04

 The electronic state is 1-A.
 Alpha  occ. eigenvalues --  -92.23431 -20.66116 -20.56512 -20.56004 -15.64070
 Alpha  occ. eigenvalues --  -15.62778 -11.35119 -11.34900 -11.28640 -11.27927
 Alpha  occ. eigenvalues --  -11.27196 -11.26749 -11.26703 -11.26391 -11.26215
 Alpha  occ. eigenvalues --  -11.25949  -9.20224  -6.88739  -6.88730  -6.88584
 Alpha  occ. eigenvalues --   -1.50175  -1.46319  -1.33999  -1.28769  -1.18779
 Alpha  occ. eigenvalues --   -1.15003  -1.10526  -1.04963  -1.04168  -1.03395
 Alpha  occ. eigenvalues --   -0.89809  -0.88392  -0.85471  -0.82335  -0.79344
 Alpha  occ. eigenvalues --   -0.75991  -0.72404  -0.70354  -0.68347  -0.67315
 Alpha  occ. eigenvalues --   -0.66780  -0.65665  -0.65256  -0.63521  -0.61629
 Alpha  occ. eigenvalues --   -0.60985  -0.60685  -0.59962  -0.57418  -0.55690
 Alpha  occ. eigenvalues --   -0.53193  -0.52836  -0.51629  -0.51170  -0.49249
 Alpha  occ. eigenvalues --   -0.48608  -0.46733  -0.46477  -0.41567  -0.39496
 Alpha  occ. eigenvalues --   -0.35926  -0.32902
 Alpha virt. eigenvalues --    0.02414   0.03110   0.03756   0.04356   0.04817
 Alpha virt. eigenvalues --    0.05032   0.05978   0.06172   0.06752   0.07938
 Alpha virt. eigenvalues --    0.08982   0.09374   0.09703   0.09949   0.10272

 Mulliken charges:
               1
     1  O   -1.161002
     2  S    2.740750
     3  N   -0.956074
     4  C   -0.236652
     5  N   -0.261148
     6  O   -1.080722
     7  C    0.218328
     8  C    1.450922
     9  C    0.565702
    10  C    0.036096
    11  C    0.513956
    12  C    0.209515
    13  C    0.378317
    14  C    1.737946
    15  C    0.110613
    16  O   -1.144269
    17  H   -0.065634
    18  H   -0.581433
    19  H   -0.478037
    20  H   -0.431814
    21  H   -0.439149
    22  H   -0.654180
    23  H   -0.556852
    24  H    0.040064
    25  H    0.020692
    26  H    0.024065
 Sum of Mulliken charges =  -0.00000

 Dipole moment (field-independent basis, Debye):
    X=              5.1101    Y=              1.4599    Z=             -3.4270  Tot=              6.3237
 Quadrupole moment (field-independent basis, Debye-Ang):
   XX=            -97.2186   YY=            -92.6838   ZZ=           -108.5405
   XY=              8.7722   XZ=             14.1730   YZ=              2.0354

 Normal termination of Gaussian 16 at Tue Sep 22 18:53:43 2020.
