 Gaussian 16, Revision B.01,

 ----------------------------------------------------------------------
 #p b3lyp/6-31G(d) opt freq NoSymm scf=(MaxCycle=2000,NoVarAcc,NoIncFoc
 k) scrf=(iefpcm,read,solvent=water)
 ----------------------------------------------------------------------

 --------------------
 SM41_m1.b.10.pdb.xyz
 --------------------
 Symbolic Z-matrix:
 Charge =  1 Multiplicity = 1

 SCF Done:  E(RB3LYP) =  -1120.76698807     A.U. after   14 cycles
 SCF Done:  E(RB3LYP) =  -1120.79102947     A.U. after   12 cycles
 SCF Done:  E(RB3LYP) =  -1120.79599125     A.U. after   11 cycles
 SCF Done:  E(RB3LYP) =  -1120.79755262     A.U. after   11 cycles
 SCF Done:  E(RB3LYP) =  -1120.79795729     A.U. after   10 cycles
 SCF Done:  E(RB3LYP) =  -1120.79830879     A.U. after   10 cycles
 SCF Done:  E(RB3LYP) =  -1120.79722448     A.U. after   13 cycles
 SCF Done:  E(RB3LYP) =  -1120.79890215     A.U. after   10 cycles
 SCF Done:  E(RB3LYP) =  -1120.79674678     A.U. after   13 cycles
 SCF Done:  E(RB3LYP) =  -1120.79898588     A.U. after   10 cycles
 SCF Done:  E(RB3LYP) =  -1120.79915726     A.U. after    8 cycles
 SCF Done:  E(RB3LYP) =  -1120.79915983     A.U. after    7 cycles
 SCF Done:  E(RB3LYP) =  -1120.79916513     A.U. after    7 cycles
 SCF Done:  E(RB3LYP) =  -1120.79916717     A.U. after    7 cycles
 SCF Done:  E(RB3LYP) =  -1120.79916693     A.U. after    7 cycles
 SCF Done:  E(RB3LYP) =  -1120.79916651     A.U. after    7 cycles
 Optimization completed.
    -- Stationary point found.
 Normal termination of Gaussian 16 at Thu Sep 24 04:58:54 2020.

 --------------------------------------------------------------------
 #P Geom=AllCheck Guess=TCheck SCRF=Check GenChk RB3LYP/6-31G(d) Freq
 --------------------------------------------------------------------

 Structure from the checkpoint file:  "SM41_m1.b.10.pdb.xyz.mst.b.w.chk"
 --------------------
 SM41_m1.b.10.pdb.xyz
 --------------------
 Charge =  1 Multiplicity = 1

 SCF Done:  E(RB3LYP) =  -1120.79916651     A.U. after    1 cycles

  Exact polarizability: 322.280  -6.121 182.204   1.833 -27.545  94.367
 Approx polarizability: 329.223 -15.333 231.944   0.334 -37.267 112.360

                      1                      2                      3
                      A                      A                      A
 Frequencies --     42.8014                55.3219                74.6027
 Red. masses --      4.6353                 5.4357                 5.8084
 Frc consts  --      0.0050                 0.0098                 0.0190
 IR Inten    --      3.7694                 4.2434                 1.1941

                      4                      5                      6
                      A                      A                      A
 Frequencies --     84.1264               102.5174               146.7051
 Red. masses --      6.7011                 5.4860                 6.4327
 Frc consts  --      0.0279                 0.0340                 0.0816
 IR Inten    --     14.5134                 3.6606                 5.0310

                      7                      8                      9
                      A                      A                      A
 Frequencies --    199.3121               226.3611               240.0948
 Red. masses --      3.2080                 1.1134                 4.9614
 Frc consts  --      0.0751                 0.0336                 0.1685
 IR Inten    --     28.6785                 1.5616                20.5889

                     10                     11                     12
                      A                      A                      A
 Frequencies --    241.7513               280.0067               294.6448
 Red. masses --      3.3729                 5.0553                 4.4647
 Frc consts  --      0.1161                 0.2335                 0.2284
 IR Inten    --     48.1988                 7.6813                 6.0687

                     13                     14                     15
                      A                      A                      A
 Frequencies --    352.0740               393.0877               402.9938
 Red. masses --      4.3604                 3.5438                 1.7981
 Frc consts  --      0.3184                 0.3226                 0.1721
 IR Inten    --      3.3502                67.0122               252.9442

                     16                     17                     18
                      A                      A                      A
 Frequencies --    409.0500               412.7229               460.4260
 Red. masses --      2.7799                 1.5457                 5.5682
 Frc consts  --      0.2741                 0.1551                 0.6955
 IR Inten    --      0.6539                16.7137                23.0405

                     19                     20                     21
                      A                      A                      A
 Frequencies --    479.9956               491.8891               531.4529
 Red. masses --      5.9545                 3.1964                 6.6872
 Frc consts  --      0.8083                 0.4557                 1.1128
 IR Inten    --     41.2396                49.5040               131.5000

                     22                     23                     24
                      A                      A                      A
 Frequencies --    629.6608               651.0834               694.4353
 Red. masses --      6.4546                 5.8312                 6.3634
 Frc consts  --      1.5078                 1.4564                 1.8080
 IR Inten    --      0.3805                10.3619                30.8316

                     25                     26                     27
                      A                      A                      A
 Frequencies --    700.9176               706.6192               732.5240
 Red. masses --      1.9297                 2.8293                 6.5784
 Frc consts  --      0.5586                 0.8323                 2.0798
 IR Inten    --     32.9549                 4.9202                35.3884

                     28                     29                     30
                      A                      A                      A
 Frequencies --    760.2310               783.4688               818.9157
 Red. masses --      6.9165                 1.5796                 1.7541
 Frc consts  --      2.3552                 0.5713                 0.6931
 IR Inten    --    118.2751                89.9022                27.8719

                     31                     32                     33
                      A                      A                      A
 Frequencies --    831.8799               863.0323               949.6442
 Red. masses --      5.6899                 1.2526                 6.7820
 Frc consts  --      2.3199                 0.5497                 3.6036
 IR Inten    --    360.8657                 0.0684                48.0297

                     34                     35                     36
                      A                      A                      A
 Frequencies --    955.7055               989.4176              1011.5436
 Red. masses --      1.3785                 1.3559                 1.3508
 Frc consts  --      0.7418                 0.7821                 0.8143
 IR Inten    --      2.8619                 0.0693               133.5730

                     37                     38                     39
                      A                      A                      A
 Frequencies --   1017.8562              1020.6901              1025.3384
 Red. masses --      5.9056                 1.2872                 1.3156
 Frc consts  --      3.6048                 0.7901                 0.8149
 IR Inten    --      2.0997                 0.0163                10.8729

                     40                     41                     42
                      A                      A                      A
 Frequencies --   1039.1296              1058.3245              1071.6765
 Red. masses --      4.8908                 2.9391                 1.8892
 Frc consts  --      3.1115                 1.9395                 1.2783
 IR Inten    --     44.3984                 5.0617                46.4622

                     43                     44                     45
                      A                      A                      A
 Frequencies --   1116.4226              1123.7599              1164.6654
 Red. masses --      1.6126                11.1836                 4.4134
 Frc consts  --      1.1843                 8.3211                 3.5272
 IR Inten    --     22.8588               349.9720                48.5228

                     46                     47                     48
                      A                      A                      A
 Frequencies --   1195.3920              1211.3571              1234.5118
 Red. masses --      1.0922                 1.1370                 1.6550
 Frc consts  --      0.9195                 0.9830                 1.4861
 IR Inten    --      0.2342                36.5590               111.0241

                     49                     50                     51
                      A                      A                      A
 Frequencies --   1286.6971              1317.7489              1352.3397
 Red. masses --      3.5192                 6.7025                 2.5245
 Frc consts  --      3.4327                 6.8573                 2.7201
 IR Inten    --     37.2616               220.9040                33.7196

                     52                     53                     54
                      A                      A                      A
 Frequencies --   1354.9179              1374.4963              1399.5875
 Red. masses --      1.6520                 2.3244                 1.1841
 Frc consts  --      1.7868                 2.5873                 1.3666
 IR Inten    --     14.1739                 7.2581                11.9514

                     55                     56                     57
                      A                      A                      A
 Frequencies --   1411.7175              1471.8227              1477.9447
 Red. masses --      2.1092                 1.0539                 1.0550
 Frc consts  --      2.4766                 1.3451                 1.3577
 IR Inten    --     67.6847                 8.9499                 9.6296

                     58                     59                     60
                      A                      A                      A
 Frequencies --   1497.0770              1521.4753              1543.3506
 Red. masses --      2.2964                 2.5164                 2.4087
 Frc consts  --      3.0323                 3.4322                 3.3804
 IR Inten    --     28.4333               891.1673               244.5335

                     61                     62                     63
                      A                      A                      A
 Frequencies --   1610.5950              1640.4892              1653.2259
 Red. masses --      5.8080                 5.6868                 6.4140
 Frc consts  --      8.8766                 9.0170                10.3287
 IR Inten    --      0.8099               290.6209               914.9768

                     64                     65                     66
                      A                      A                      A
 Frequencies --   1662.0176              3108.6640              3211.9256
 Red. masses --      5.5414                 1.0289                 1.1079
 Frc consts  --      9.0186                 5.8583                 6.7340
 IR Inten    --     39.7404                 1.1604                 2.1358

                     67                     68                     69
                      A                      A                      A
 Frequencies --   3215.5470              3222.7805              3226.4067
 Red. masses --      1.0865                 1.0885                 1.1092
 Frc consts  --      6.6188                 6.6612                 6.8029
 IR Inten    --      1.1092                 2.0243                 0.7854

                     70                     71                     72
                      A                      A                      A
 Frequencies --   3228.9847              3238.5302              3243.3795
 Red. masses --      1.0924                 1.0952                 1.0962
 Frc consts  --      6.7106                 6.7678                 6.7942
 IR Inten    --     28.8673                31.6956                12.2920

                     73                     74                     75
                      A                      A                      A
 Frequencies --   3336.3971              3535.8076              3551.6193
 Red. masses --      1.0994                 1.0790                 1.0868
 Frc consts  --      7.2106                 7.9476                 8.0769
 IR Inten    --     13.2320               456.5500               538.6728

 - Thermochemistry -
 -------------------
 Temperature   298.150 Kelvin.  Pressure   1.00000 Atm.
 Atom     1 has atomic number  8 and mass  15.99491

 Molecular mass:   239.04904 amu.
 Principal axes and moments of inertia in atomic units:
                           1         2         3
     Eigenvalues --   946.150759954.91078**********
           X            0.99974  -0.02249   0.00481
           Y            0.02039   0.96334   0.26752
           Z           -0.01065  -0.26735   0.96354
 This molecule is an asymmetric top.
 Rotational symmetry number  1.
 Warning -- assumption of classical behavior for rotation
           may cause significant error
 Rotational temperatures (Kelvin)      0.09154     0.00870     0.00827
 Rotational constants (GHZ):           1.90746     0.18129     0.17238
 Zero-point vibrational energy     544155.4 (Joules/Mol)
                                  130.05627 (Kcal/Mol)
 Warning -- explicit consideration of  21 degrees of freedom as
           vibrations may cause significant error
 Vibrational temperatures:     61.58    79.60   107.34   121.04   147.50
          (Kelvin)            211.08   286.77   325.68   345.44   347.83
                              402.87   423.93   506.56   565.57   579.82
                              588.53   593.82   662.45   690.61   707.72
                              764.64   905.94   936.76   999.14  1008.46
                             1016.67  1053.94  1093.80  1127.24  1178.24
                             1196.89  1241.71  1366.33  1375.05  1423.55
                             1455.39  1464.47  1468.55  1475.23  1495.08
                             1522.69  1541.90  1606.28  1616.84  1675.69
                             1719.90  1742.87  1776.19  1851.27  1895.95
                             1945.72  1949.42  1977.59  2013.69  2031.15
                             2117.62  2126.43  2153.96  2189.06  2220.54
                             2317.29  2360.30  2378.62  2391.27  4472.67
                             4621.24  4626.45  4636.86  4642.08  4645.79
                             4659.52  4666.50  4800.33  5087.24  5109.99

 Zero-point correction=                           0.207258 (Hartree/Particle)
 Thermal correction to Energy=                    0.221811
 Thermal correction to Enthalpy=                  0.222755
 Thermal correction to Gibbs Free Energy=         0.164967
 Sum of electronic and zero-point Energies=          -1120.591909
 Sum of electronic and thermal Energies=             -1120.577355
 Sum of electronic and thermal Enthalpies=           -1120.576411
 Sum of electronic and thermal Free Energies=        -1120.634199

                     E (Thermal)             CV                S
                      KCal/Mol        Cal/Mol-Kelvin    Cal/Mol-Kelvin
 Total                  139.189             55.503            121.625
 Electronic               0.000              0.000              0.000
 Translational            0.889              2.981             42.316
 Rotational               0.889              2.981             32.955
 Vibrational            137.411             49.541             46.354
 Vibration     1          0.595              1.980              5.125
 Vibration     2          0.596              1.975              4.617
 Vibration     3          0.599              1.966              4.028
 Vibration     4          0.601              1.960              3.792
 Vibration     5          0.605              1.947              3.406
 Vibration     6          0.617              1.906              2.715
 Vibration     7          0.637              1.841              2.139
 Vibration     8          0.650              1.801              1.908
 Vibration     9          0.657              1.779              1.802
 Vibration    10          0.658              1.776              1.790
 Vibration    11          0.680              1.711              1.534
 Vibration    12          0.689              1.684              1.447
 Vibration    13          0.729              1.571              1.157
 Vibration    14          0.760              1.485              0.988
 Vibration    15          0.768              1.464              0.952
 Vibration    16          0.773              1.451              0.930
 Vibration    17          0.777              1.443              0.917
 Vibration    18          0.818              1.338              0.765
 Vibration    19          0.836              1.294              0.710
 Vibration    20          0.848              1.268              0.679
 Vibration    21          0.886              1.180              0.584

                           ! Non-Optimized Parameters !
 Normal termination of Gaussian 16 at Thu Sep 24 05:04:56 2020.

 ----------------------------------------------------------------------
 #p b3lyp/6-31G(d) scrf=(iefpcm,read,solvent=water) geom=allcheck guess
 =read
 ----------------------------------------------------------------------

 Structure from the checkpoint file:  "SM41_m1.b.10.pdb.xyz.mst.b.w.chk"
 --------------------
 SM41_m1.b.10.pdb.xyz
 --------------------
 Charge =  1 Multiplicity = 1

 SCF Done:  E(RB3LYP) =  -1120.79898423     A.U. after    7 cycles
 Normal termination of Gaussian 16 at Thu Sep 24 05:05:24 2020.

 -----------------------------
 #p B3LYP/6-31G* geom=allcheck
 -----------------------------

 Structure from the checkpoint file:  "SM41_m1.b.10.pdb.xyz.mst.b.w.chk"
 --------------------
 SM41_m1.b.10.pdb.xyz
 --------------------
 Charge =  1 Multiplicity = 1

 SCF Done:  E(RB3LYP) =  -1120.70126310     A.U. after   15 cycles
 Normal termination of Gaussian 16 at Thu Sep 24 05:05:54 2020.
 Gaussian 16:  ES64L-G16RevB.01 20-Dec-2017

 ----------------------------------------------------------------------
 #p mp2/aug-cc-pVDZ scf=(MaxCycle=2000,NoVarAcc,NoIncFock) maxdisk=120G
 B geom=allcheck
 ----------------------------------------------------------------------

 Structure from the checkpoint file:  "SM41_m1.b.10.pdb.xyz.mst.b.w.chk"
 --------------------
 SM41_m1.b.10.pdb.xyz
 --------------------
 Charge =  1 Multiplicity = 1

                         Standard orientation:
 ---------------------------------------------------------------------
 Center     Atomic      Atomic             Coordinates (Angstroms)
 Number     Number       Type             X           Y           Z
 ---------------------------------------------------------------------
      1          8           0        3.347686   -1.290208   -0.672399
      2         16           0        3.647909    0.041276   -0.137814
      3          7           0        2.151337    0.869020   -0.116669
      4          6           0        0.915264    0.314234   -0.061915
      5          7           0        0.657988   -0.993601   -0.024739
      6          8           0       -0.695591   -1.212277   -0.010206
      7          6           0       -1.282274    0.013307   -0.008171
      8          6           0       -2.732951    0.043081    0.013704
      9          6           0       -3.399517    1.279314    0.049732
     10          6           0       -4.789538    1.315085    0.056795
     11          6           0       -5.521880    0.124892    0.028524
     12          6           0       -4.860970   -1.105755   -0.005512
     13          6           0       -3.471058   -1.151493   -0.012818
     14          6           0       -0.323719    0.993348   -0.034321
     15          6           0        4.096146   -0.085467    1.590396
     16          8           0        4.568992    0.938616   -0.827678
     17          1           0       -2.832424    2.203160    0.072849
     18          1           0       -5.301738    2.269996    0.084314
     19          1           0       -6.605971    0.156862    0.032984
     20          1           0       -5.428442   -2.029254   -0.028014
     21          1           0       -2.954490   -2.103103   -0.042395
     22          1           0       -0.462115    2.060796   -0.039993
     23          1           0        3.319555   -0.646051    2.109702
     24          1           0        4.197843    0.921662    1.992221
     25          1           0        5.048209   -0.616902    1.627530
     26          1           0        2.206313    1.888373   -0.093909
     27          1           0        1.235725   -1.826223   -0.136617
 ---------------------------------------------------------------------

 SCF Done:  E(RHF) =  -1115.84141339     A.U. after   16 cycles
 E2 =    -0.2429562241D+01 EUMP2 =    -0.11182709756340D+04

 The electronic state is 1-A.
 Alpha  occ. eigenvalues --  -92.38878 -20.85482 -20.71828 -20.71082 -15.86147
 Alpha  occ. eigenvalues --  -15.81013 -11.56878 -11.52800 -11.43069 -11.42008
 Alpha  occ. eigenvalues --  -11.40088 -11.39242 -11.38911 -11.38099 -11.37113
 Alpha  occ. eigenvalues --  -11.37004  -9.35627  -7.04157  -7.04135  -7.03957
 Alpha  occ. eigenvalues --   -1.71359  -1.61868  -1.49655  -1.47217  -1.36892
 Alpha  occ. eigenvalues --   -1.30874  -1.27336  -1.19533  -1.17410  -1.15703
 Alpha  occ. eigenvalues --   -1.06795  -1.05040  -1.02504  -0.96610  -0.95533
 Alpha  occ. eigenvalues --   -0.94290  -0.88455  -0.88103  -0.86637  -0.85366
 Alpha  occ. eigenvalues --   -0.82812  -0.80546  -0.80002  -0.79327  -0.77649
 Alpha  occ. eigenvalues --   -0.75564  -0.75276  -0.74409  -0.72990  -0.72332
 Alpha  occ. eigenvalues --   -0.72045  -0.66184  -0.65610  -0.64816  -0.64386
 Alpha  occ. eigenvalues --   -0.62984  -0.62331  -0.61513  -0.59828  -0.56460
 Alpha  occ. eigenvalues --   -0.47081  -0.46637
 Alpha virt. eigenvalues --   -0.09709  -0.07733  -0.05994  -0.05288  -0.04254
 Alpha virt. eigenvalues --   -0.03657  -0.03363  -0.02537  -0.02258  -0.02194
 Alpha virt. eigenvalues --   -0.01708  -0.01000  -0.00616  -0.00253   0.00263

 Mulliken charges:
               1
     1  O   -1.113940
     2  S    2.663821
     3  N   -0.856856
     4  C    0.137336
     5  N   -0.001330
     6  O   -1.070965
     7  C   -0.160701
     8  C    1.614041
     9  C    0.583889
    10  C    0.094981
    11  C    0.513807
    12  C    0.255471
    13  C    0.331763
    14  C    1.852381
    15  C    0.108376
    16  O   -1.049986
    17  H   -0.567409
    18  H   -0.460605
    19  H   -0.406347
    20  H   -0.422215
    21  H   -0.655988
    22  H   -0.555485
    23  H    0.023640
    24  H    0.050305
    25  H    0.084888
    26  H   -0.047744
    27  H    0.054870
 Sum of Mulliken charges =   1.00000

 Dipole moment (field-independent basis, Debye):
    X=             -2.2533    Y=              1.6497    Z=              4.3672  Tot=              5.1838
 Quadrupole moment (field-independent basis, Debye-Ang):
   XX=            -46.1047   YY=            -82.7924   ZZ=            -99.9097
   XY=             -0.6881   XZ=             19.7568   YZ=              0.0492

 Normal termination of Gaussian 16 at Thu Sep 24 05:24:28 2020.
