 Gaussian 16, Revision B.01,

 ----------------------------------------------------------------------
 #p b3lyp/6-31G(d) opt freq NoSymm scf=(MaxCycle=2000,NoVarAcc,NoIncFoc
 k) scrf=(iefpcm,read,solvent=water)
 ----------------------------------------------------------------------

 -------------------
 SM41_m1.a.5.pdb.xyz
 -------------------
 Symbolic Z-matrix:
 Charge = -1 Multiplicity = 1

 SCF Done:  E(RB3LYP) =  -1119.88973017     A.U. after   13 cycles
 SCF Done:  E(RB3LYP) =  -1119.88962160     A.U. after   10 cycles
 SCF Done:  E(RB3LYP) =  -1119.88962162     A.U. after    9 cycles
 SCF Done:  E(RB3LYP) =  -1119.88972891     A.U. after   10 cycles
 SCF Done:  E(RB3LYP) =  -1119.88973199     A.U. after    8 cycles
 SCF Done:  E(RB3LYP) =  -1119.88961476     A.U. after   10 cycles
 SCF Done:  E(RB3LYP) =  -1119.88961729     A.U. after    8 cycles
 SCF Done:  E(RB3LYP) =  -1119.88972869     A.U. after   10 cycles
 SCF Done:  E(RB3LYP) =  -1119.88973190     A.U. after    8 cycles
 SCF Done:  E(RB3LYP) =  -1119.88960512     A.U. after   10 cycles
 SCF Done:  E(RB3LYP) =  -1119.88973186     A.U. after    8 cycles
 SCF Done:  E(RB3LYP) =  -1119.88961328     A.U. after   10 cycles
 SCF Done:  E(RB3LYP) =  -1119.88961458     A.U. after    7 cycles
 SCF Done:  E(RB3LYP) =  -1119.88972844     A.U. after   10 cycles
 SCF Done:  E(RB3LYP) =  -1119.88973185     A.U. after    8 cycles
 SCF Done:  E(RB3LYP) =  -1119.88961395     A.U. after   10 cycles
 Optimization completed.
    -- Stationary point found.
 Normal termination of Gaussian 16 at Thu Sep 24 05:01:11 2020.

 --------------------------------------------------------------------
 #P Geom=AllCheck Guess=TCheck SCRF=Check GenChk RB3LYP/6-31G(d) Freq
 --------------------------------------------------------------------

 Structure from the checkpoint file:  "SM41_m1.a.5.pdb.xyz.mst.a.w.chk"
 -------------------
 SM41_m1.a.5.pdb.xyz
 -------------------
 Charge = -1 Multiplicity = 1

 SCF Done:  E(RB3LYP) =  -1119.88961395     A.U. after    1 cycles

  Exact polarizability: 320.050  -7.722 193.828  -0.483 -12.167  91.894
 Approx polarizability: 328.953 -15.281 248.641  -1.572 -20.997 110.377

                      1                      2                      3
                      A                      A                      A
 Frequencies --     25.4467                38.5050                73.7412
 Red. masses --      4.1502                 6.8662                 5.8608
 Frc consts  --      0.0016                 0.0060                 0.0188
 IR Inten    --      2.0248                 3.4980                 1.7882

                      4                      5                      6
                      A                      A                      A
 Frequencies --     84.5809               104.7062               141.1113
 Red. masses --      6.3837                 5.3618                 5.8356
 Frc consts  --      0.0269                 0.0346                 0.0685
 IR Inten    --      8.1069                 4.9781                 0.3704

                      7                      8                      9
                      A                      A                      A
 Frequencies --    217.8677               229.1270               251.8756
 Red. masses --      4.6104                 1.0894                 7.1429
 Frc consts  --      0.1289                 0.0337                 0.2670
 IR Inten    --      2.0039                 0.2746                10.2334

                     10                     11                     12
                      A                      A                      A
 Frequencies --    287.3834               307.7283               348.6278
 Red. masses --      4.6337                 4.8097                 5.8281
 Frc consts  --      0.2255                 0.2684                 0.4173
 IR Inten    --      5.6173                 4.1645                 7.2931

                     13                     14                     15
                      A                      A                      A
 Frequencies --    389.6391               411.0998               415.6516
 Red. masses --      7.5785                 2.9913                 8.6427
 Frc consts  --      0.6779                 0.2979                 0.8798
 IR Inten    --      2.7020                 0.0010                 6.2289

                     16                     17                     18
                      A                      A                      A
 Frequencies --    463.1520               491.5208               496.7447
 Red. masses --      6.5716                 6.3480                 4.8497
 Frc consts  --      0.8306                 0.9036                 0.7051
 IR Inten    --     40.7339                75.2253                10.1118

                     19                     20                     21
                      A                      A                      A
 Frequencies --    540.6603               631.2149               657.0023
 Red. masses --      6.2641                 6.4491                 7.1579
 Frc consts  --      1.0788                 1.5139                 1.8204
 IR Inten    --     71.4367                 0.0098                 1.6210

                     22                     23                     24
                      A                      A                      A
 Frequencies --    685.2716               703.1719               705.3938
 Red. masses --      6.6103                 3.5697                 2.3453
 Frc consts  --      1.8289                 1.0399                 0.6876
 IR Inten    --      4.0148                15.8752                54.8585

                     25                     26                     27
                      A                      A                      A
 Frequencies --    718.4718               763.7971               778.3880
 Red. masses --      3.7370                 9.1935                 1.5131
 Frc consts  --      1.1366                 3.1600                 0.5401
 IR Inten    --     16.2980               209.6590                92.3800

                     28                     29                     30
                      A                      A                      A
 Frequencies --    803.2685               864.2539               888.0674
 Red. masses --      1.9431                 1.2528                 9.0381
 Frc consts  --      0.7387                 0.5513                 4.1997
 IR Inten    --     13.0144                 0.0465               148.4613

                     31                     32                     33
                      A                      A                      A
 Frequencies --    927.0905               940.9372               957.2234
 Red. masses --     10.2192                 1.3917                 7.9792
 Frc consts  --      5.1750                 0.7260                 4.3076
 IR Inten    --     75.7679                 3.5807                20.9627

                     34                     35                     36
                      A                      A                      A
 Frequencies --    982.3039               991.8166               998.0757
 Red. masses --      1.3489                 1.4787                 1.4418
 Frc consts  --      0.7669                 0.8570                 0.8462
 IR Inten    --      0.0657                67.7312                25.7523

                     37                     38                     39
                      A                      A                      A
 Frequencies --   1010.1051              1016.7006              1037.6096
 Red. masses --      1.2594                 6.0966                 2.3906
 Frc consts  --      0.7571                 3.7130                 1.5164
 IR Inten    --      0.1623                 0.1721                23.9884

                     40                     41                     42
                      A                      A                      A
 Frequencies --   1055.0123              1084.2185              1097.7785
 Red. masses --      2.4519                 4.1816                 5.5332
 Frc consts  --      1.6079                 2.8962                 3.9288
 IR Inten    --     10.4928               402.9849               385.5498

                     43                     44                     45
                      A                      A                      A
 Frequencies --   1108.0280              1189.5522              1202.2590
 Red. masses --      1.5777                 1.0951                 1.1532
 Frc consts  --      1.1412                 0.9130                 0.9821
 IR Inten    --     15.0667                 0.0387                12.6984

                     46                     47                     48
                      A                      A                      A
 Frequencies --   1214.2877              1233.5305              1294.5652
 Red. masses --     13.6871                 2.3364                 4.7755
 Frc consts  --     11.8906                 2.0946                 4.7154
 IR Inten    --    459.2733               111.2086                 5.4557

                     49                     50                     51
                      A                      A                      A
 Frequencies --   1349.5699              1367.8807              1371.7627
 Red. masses --      2.9268                 2.1688                 1.2192
 Frc consts  --      3.1408                 2.3909                 1.3517
 IR Inten    --     29.1545                 1.6071                24.3871

                     52                     53                     54
                      A                      A                      A
 Frequencies --   1433.8810              1477.3693              1485.3023
 Red. masses --      6.8435                 1.0977                 3.0633
 Frc consts  --      8.2901                 1.4116                 3.9817
 IR Inten    --    223.6381                47.5051               402.2764

                     55                     56                     57
                      A                      A                      A
 Frequencies --   1493.9757              1500.2018              1541.0162
 Red. masses --      1.2010                 2.5563                 2.3889
 Frc consts  --      1.5794                 3.3897                 3.3424
 IR Inten    --      6.9276               351.7813               167.1282

                     58                     59                     60
                      A                      A                      A
 Frequencies --   1627.9245              1651.2595              1667.6531
 Red. masses --      5.7581                 6.8117                 6.1822
 Frc consts  --      8.9908                10.9430                10.1300
 IR Inten    --    114.9863                99.1130                29.6117

                     61                     62                     63
                      A                      A                      A
 Frequencies --   3099.1621              3198.2001              3204.3362
 Red. masses --      1.0299                 1.1070                 1.0857
 Frc consts  --      5.8283                 6.6712                 6.5681
 IR Inten    --      7.2177                 6.4943                 4.0160

                     64                     65                     66
                      A                      A                      A
 Frequencies --   3206.2825              3209.6768              3218.1580
 Red. masses --      1.1071                 1.0884                 1.0925
 Frc consts  --      6.7059                 6.6063                 6.6662
 IR Inten    --      1.2603                 3.5034                42.3225

                     67                     68                     69
                      A                      A                      A
 Frequencies --   3228.1231              3235.8696              3303.6905
 Red. masses --      1.0958                 1.0946                 1.0982
 Frc consts  --      6.7280                 6.7527                 7.0619
 IR Inten    --     47.3628                12.5420                 1.0300

 - Thermochemistry -
 -------------------
 Temperature   298.150 Kelvin.  Pressure   1.00000 Atm.
 Atom     1 has atomic number  8 and mass  15.99491

 Molecular mass:   237.03339 amu.
 Principal axes and moments of inertia in atomic units:
                           1         2         3
     Eigenvalues --   925.964359742.74496**********
           X            0.99986  -0.00086   0.01647
           Y           -0.00074   0.99528   0.09708
           Z           -0.01647  -0.09708   0.99514
 This molecule is an asymmetric top.
 Rotational symmetry number  1.
 Warning -- assumption of classical behavior for rotation
           may cause significant error
 Rotational temperatures (Kelvin)      0.09354     0.00889     0.00844
 Rotational constants (GHZ):           1.94904     0.18524     0.17591
 Zero-point vibrational energy     476890.5 (Joules/Mol)
                                  113.97956 (Kcal/Mol)
 Warning -- explicit consideration of  19 degrees of freedom as
           vibrations may cause significant error
 Vibrational temperatures:     36.61    55.40   106.10   121.69   150.65
          (Kelvin)            203.03   313.46   329.66   362.39   413.48
                              442.75   501.60   560.60   591.48   598.03
                              666.37   707.19   714.70   777.89   908.18
                              945.28   985.95  1011.71  1014.90  1033.72
                             1098.93  1119.93  1155.72  1243.47  1277.73
                             1333.88  1353.80  1377.23  1413.32  1427.00
                             1436.01  1453.32  1462.81  1492.89  1517.93
                             1559.95  1579.46  1594.21  1711.50  1729.78
                             1747.09  1774.78  1862.59  1941.73  1968.08
                             1973.66  2063.03  2125.60  2137.02  2149.50
                             2158.46  2217.18  2342.22  2375.79  2399.38
                             4459.00  4601.50  4610.33  4613.13  4618.01
                             4630.21  4644.55  4655.69  4753.27

 Zero-point correction=                           0.181638 (Hartree/Particle)
 Thermal correction to Energy=                    0.195406
 Thermal correction to Enthalpy=                  0.196350
 Thermal correction to Gibbs Free Energy=         0.139223
 Sum of electronic and zero-point Energies=          -1119.707976
 Sum of electronic and thermal Energies=             -1119.694208
 Sum of electronic and thermal Enthalpies=           -1119.693264
 Sum of electronic and thermal Free Energies=        -1119.750391

                     E (Thermal)             CV                S
                      KCal/Mol        Cal/Mol-Kelvin    Cal/Mol-Kelvin
 Total                  122.619             52.336            120.234
 Electronic               0.000              0.000              0.000
 Translational            0.889              2.981             42.291
 Rotational               0.889              2.981             32.892
 Vibrational            120.842             46.375             45.051
 Vibration     1          0.593              1.985              6.156
 Vibration     2          0.594              1.981              5.335
 Vibration     3          0.599              1.966              4.051
 Vibration     4          0.601              1.960              3.782
 Vibration     5          0.605              1.945              3.365
 Vibration     6          0.615              1.912              2.789
 Vibration     7          0.646              1.814              1.977
 Vibration     8          0.652              1.797              1.886
 Vibration     9          0.664              1.760              1.717
 Vibration    10          0.685              1.697              1.489
 Vibration    11          0.698              1.659              1.375
 Vibration    12          0.726              1.578              1.172
 Vibration    13          0.758              1.492              1.002
 Vibration    14          0.775              1.446              0.923
 Vibration    15          0.779              1.436              0.907
 Vibration    16          0.821              1.332              0.757
 Vibration    17          0.847              1.269              0.680
 Vibration    18          0.852              1.257              0.666
 Vibration    19          0.896              1.160              0.564

 Optimization completed.
    -- Stationary point found.
 Normal termination of Gaussian 16 at Thu Sep 24 05:06:39 2020.

 ----------------------------------------------------------------------
 #p b3lyp/6-31G(d) scrf=(iefpcm,read,solvent=water) geom=allcheck guess
 =read
 ----------------------------------------------------------------------

 Structure from the checkpoint file:  "SM41_m1.a.5.pdb.xyz.mst.a.w.chk"
 -------------------
 SM41_m1.a.5.pdb.xyz
 -------------------
 Charge = -1 Multiplicity = 1

 SCF Done:  E(RB3LYP) =  -1119.88961518     A.U. after    6 cycles
 Normal termination of Gaussian 16 at Thu Sep 24 05:07:10 2020.

 -----------------------------
 #p B3LYP/6-31G* geom=allcheck
 -----------------------------

 Structure from the checkpoint file:  "SM41_m1.a.5.pdb.xyz.mst.a.w.chk"
 -------------------
 SM41_m1.a.5.pdb.xyz
 -------------------
 Charge = -1 Multiplicity = 1

 SCF Done:  E(RB3LYP) =  -1119.78928360     A.U. after   15 cycles
 Normal termination of Gaussian 16 at Thu Sep 24 05:07:37 2020.
 Gaussian 16:  ES64L-G16RevB.01 20-Dec-2017

 ----------------------------------------------------------------------
 #p mp2/aug-cc-pVDZ scf=(MaxCycle=2000,NoVarAcc,NoIncFock) maxdisk=120G
 B geom=allcheck
 ----------------------------------------------------------------------

 Structure from the checkpoint file:  "SM41_m1.a.5.pdb.xyz.mst.a.w.chk"
 -------------------
 SM41_m1.a.5.pdb.xyz
 -------------------
 Charge = -1 Multiplicity = 1

                         Standard orientation:
 ---------------------------------------------------------------------
 Center     Atomic      Atomic             Coordinates (Angstroms)
 Number     Number       Type             X           Y           Z
 ---------------------------------------------------------------------
      1          8           0        3.642695   -0.748973   -1.302248
      2         16           0        3.567123    0.147458   -0.114176
      3          7           0        2.194021    0.986163    0.003670
      4          6           0        0.992616    0.330062   -0.023851
      5          7           0        0.804686   -0.991501   -0.069234
      6          8           0       -0.605415   -1.175566   -0.058211
      7          6           0       -1.211326    0.035813   -0.009070
      8          6           0       -2.671997    0.047953    0.002338
      9          6           0       -3.370972    1.263519    0.083049
     10          6           0       -4.763120    1.273776    0.091731
     11          6           0       -5.476670    0.074036    0.020406
     12          6           0       -4.787402   -1.138011   -0.059469
     13          6           0       -3.394544   -1.153406   -0.068559
     14          6           0       -0.269033    1.018345    0.015678
     15          6           0        3.689724   -0.926381    1.329035
     16          8           0        4.669144    1.136970   -0.006903
     17          1           0       -2.822291    2.197888    0.139875
     18          1           0       -5.292240    2.218754    0.154566
     19          1           0       -6.561495    0.084771    0.027123
     20          1           0       -5.334787   -2.073136   -0.115416
     21          1           0       -2.856747   -2.091888   -0.131412
     22          1           0       -0.415724    2.085848    0.052381
     23          1           0        2.824794   -1.588985    1.334492
     24          1           0        3.705207   -0.307908    2.226597
     25          1           0        4.613326   -1.500989    1.248724
 ---------------------------------------------------------------------

 SCF Done:  E(RHF) =  -1114.93030424     A.U. after   18 cycles
 E2 =    -0.2462790778D+01 EUMP2 =    -0.11173930950202D+04

 The electronic state is 1-A.
 Alpha  occ. eigenvalues --  -92.03819 -20.50554 -20.37196 -20.37119 -15.45985
 Alpha  occ. eigenvalues --  -15.38797 -11.20383 -11.18068 -11.17774 -11.17466
 Alpha  occ. eigenvalues --  -11.17342 -11.17209 -11.17127 -11.16661 -11.12171
 Alpha  occ. eigenvalues --  -11.11613  -9.00596  -6.69135  -6.69073  -6.69019
 Alpha  occ. eigenvalues --   -1.34054  -1.26440  -1.14041  -1.08852  -1.07547
 Alpha  occ. eigenvalues --   -0.98668  -0.95918  -0.94475  -0.91259  -0.86668
 Alpha  occ. eigenvalues --   -0.77420  -0.75887  -0.70823  -0.67921  -0.64168
 Alpha  occ. eigenvalues --   -0.60486  -0.57629  -0.55099  -0.54806  -0.52085
 Alpha  occ. eigenvalues --   -0.51769  -0.50857  -0.49744  -0.48908  -0.47007
 Alpha  occ. eigenvalues --   -0.45108  -0.44059  -0.43545  -0.43169  -0.42499
 Alpha  occ. eigenvalues --   -0.41446  -0.35700  -0.33536  -0.32645  -0.31206
 Alpha  occ. eigenvalues --   -0.29892  -0.29515  -0.27793  -0.26674  -0.24933
 Alpha  occ. eigenvalues --   -0.20882  -0.18644
 Alpha virt. eigenvalues --    0.08691   0.09747   0.10797   0.12726   0.13127
 Alpha virt. eigenvalues --    0.13795   0.14971   0.15616   0.16121   0.16625
 Alpha virt. eigenvalues --    0.17657   0.17895   0.17997   0.19403   0.19877

 Mulliken charges:
               1
     1  O   -1.254227
     2  S    2.753957
     3  N   -1.370717
     4  C   -0.108290
     5  N   -0.285118
     6  O   -1.086797
     7  C    0.250045
     8  C    1.351483
     9  C    0.544432
    10  C    0.004110
    11  C    0.526345
    12  C    0.218582
    13  C    0.424034
    14  C    1.518685
    15  C    0.024410
    16  O   -1.222128
    17  H   -0.579265
    18  H   -0.495088
    19  H   -0.453308
    20  H   -0.454135
    21  H   -0.654179
    22  H   -0.580766
    23  H   -0.011927
    24  H   -0.008331
    25  H   -0.051807
 Sum of Mulliken charges =  -1.00000

 Dipole moment (field-independent basis, Debye):
    X=            -13.9821    Y=             -0.5291    Z=              3.6518  Tot=             14.4608
 Quadrupole moment (field-independent basis, Debye-Ang):
   XX=           -161.3087   YY=           -108.5238   ZZ=           -111.3303
   XY=            -11.9462   XZ=             13.7940   YZ=             -3.3769

 Normal termination of Gaussian 16 at Thu Sep 24 05:20:40 2020.
