 Gaussian 16, Revision B.01,

 ----------------------------------------------------------------------
 #p b3lyp/6-31G(d) opt freq NoSymm scf=(MaxCycle=2000,NoVarAcc,NoIncFoc
 k) scrf=(iefpcm,read,solvent=water)
 ----------------------------------------------------------------------

 -------------------
 SM41_m0.n.2.pdb.xyz
 -------------------
 Symbolic Z-matrix:
 Charge =  0 Multiplicity = 1

 SCF Done:  E(RB3LYP) =  -1120.35883938     A.U. after   13 cycles
 SCF Done:  E(RB3LYP) =  -1120.35883096     A.U. after    9 cycles
 SCF Done:  E(RB3LYP) =  -1120.35882625     A.U. after    8 cycles
 SCF Done:  E(RB3LYP) =  -1120.35884068     A.U. after    9 cycles
 SCF Done:  E(RB3LYP) =  -1120.35882622     A.U. after    9 cycles
 SCF Done:  E(RB3LYP) =  -1120.35882334     A.U. after    7 cycles
 SCF Done:  E(RB3LYP) =  -1120.35884025     A.U. after    9 cycles
 SCF Done:  E(RB3LYP) =  -1120.35884086     A.U. after    8 cycles
 SCF Done:  E(RB3LYP) =  -1120.35882006     A.U. after    9 cycles
 SCF Done:  E(RB3LYP) =  -1120.35881829     A.U. after    7 cycles
 SCF Done:  E(RB3LYP) =  -1120.35882223     A.U. after   10 cycles
 SCF Done:  E(RB3LYP) =  -1120.35883905     A.U. after    9 cycles
 SCF Done:  E(RB3LYP) =  -1120.35882050     A.U. after    9 cycles
 SCF Done:  E(RB3LYP) =  -1120.35883910     A.U. after    9 cycles
 SCF Done:  E(RB3LYP) =  -1120.35884160     A.U. after    9 cycles
 SCF Done:  E(RB3LYP) =  -1120.35882080     A.U. after   10 cycles
 Optimization completed on the basis of negligible forces.
    -- Stationary point found.
 Normal termination of Gaussian 16 at Fri Sep 18 08:07:01 2020.

 --------------------------------------------------------------------
 #P Geom=AllCheck Guess=TCheck SCRF=Check GenChk RB3LYP/6-31G(d) Freq
 --------------------------------------------------------------------

 Structure from the checkpoint file:  "SM41_m0.n.2.pdb.xyz.mst.n.w.chk"
 -------------------
 SM41_m0.n.2.pdb.xyz
 -------------------
 Charge =  0 Multiplicity = 1

 SCF Done:  E(RB3LYP) =  -1120.35882080     A.U. after    1 cycles

  Exact polarizability: 302.539  -5.619 193.101   9.006  -6.159  88.944
 Approx polarizability: 314.930 -11.564 244.666  10.671 -12.755 109.217

                      1                      2                      3
                      A                      A                      A
 Frequencies --     25.5705                30.9834                64.2401
 Red. masses --      4.4656                 6.2586                 5.0078
 Frc consts  --      0.0017                 0.0035                 0.0122
 IR Inten    --      1.7198                 3.2153                 9.8822

                      4                      5                      6
                      A                      A                      A
 Frequencies --     82.9489                97.2974               131.1550
 Red. masses --      6.2658                 5.4216                 5.3706
 Frc consts  --      0.0254                 0.0302                 0.0544
 IR Inten    --     13.7228                 2.9546                 4.9693

                      7                      8                      9
                      A                      A                      A
 Frequencies --    218.4469               223.5012               239.8207
 Red. masses --      3.7557                 1.1623                 6.8317
 Frc consts  --      0.1056                 0.0342                 0.2315
 IR Inten    --      2.1746                 0.0295                 0.1920

                     10                     11                     12
                      A                      A                      A
 Frequencies --    270.2202               301.9395               342.9920
 Red. masses --      5.0344                 5.6126                 3.9412
 Frc consts  --      0.2166                 0.3015                 0.2732
 IR Inten    --      0.9961                 6.6716                 7.8127

                     13                     14                     15
                      A                      A                      A
 Frequencies --    353.5657               388.1656               393.3465
 Red. masses --      1.3443                 7.3874                 7.6701
 Frc consts  --      0.0990                 0.6558                 0.6992
 IR Inten    --    159.7122                14.1324                 4.4474

                     16                     17                     18
                      A                      A                      A
 Frequencies --    411.5153               461.4157               480.7639
 Red. masses --      2.9568                 4.8154                 7.9138
 Frc consts  --      0.2950                 0.6040                 1.0777
 IR Inten    --      0.0543                50.2445                80.5780

                     19                     20                     21
                      A                      A                      A
 Frequencies --    498.2846               525.0112               630.5579
 Red. masses --      4.2072                 6.2634                 6.4451
 Frc consts  --      0.6155                 1.0172                 1.5098
 IR Inten    --      5.3298               112.4072                 0.0151

                     22                     23                     24
                      A                      A                      A
 Frequencies --    661.8565               692.3875               702.0258
 Red. masses --      8.1830                 5.7876                 1.9010
 Frc consts  --      2.1120                 1.6347                 0.5520
 IR Inten    --      1.3471                22.6766                29.8158

                     25                     26                     27
                      A                      A                      A
 Frequencies --    706.3461               721.9949               778.7171
 Red. masses --      3.5115                 4.6246                 1.4382
 Frc consts  --      1.0322                 1.4203                 0.5138
 IR Inten    --     12.2527                26.9131               109.4010

                     28                     29                     30
                      A                      A                      A
 Frequencies --    796.2018               805.5790               851.5190
 Red. masses --      5.6579                 2.1193                 5.8229
 Frc consts  --      2.1133                 0.8103                 2.4876
 IR Inten    --     39.3224                 5.6711               278.0956

                     31                     32                     33
                      A                      A                      A
 Frequencies --    863.0385               944.1638               962.6848
 Red. masses --      1.2543                 1.3893                 8.7320
 Frc consts  --      0.5504                 0.7297                 4.7680
 IR Inten    --      0.0729                 3.0915                10.5819

                     34                     35                     36
                      A                      A                      A
 Frequencies --    974.3520               984.1502              1010.9192
 Red. masses --     10.1111                 1.3525                 1.3503
 Frc consts  --      5.6556                 0.7718                 0.8130
 IR Inten    --     61.8188                 0.0192                22.5990

                     37                     38                     39
                      A                      A                      A
 Frequencies --   1014.3004              1015.7011              1017.1355
 Red. masses --      1.2691                 1.5753                 4.1693
 Frc consts  --      0.7692                 0.9575                 2.5414
 IR Inten    --      0.0577                54.6271                 3.2902

                     40                     41                     42
                      A                      A                      A
 Frequencies --   1049.3856              1070.3282              1091.3366
 Red. masses --      2.4439                 2.6801                 3.3476
 Frc consts  --      1.5856                 1.8090                 2.3491
 IR Inten    --      5.4224                27.0713                50.1220

                     43                     44                     45
                      A                      A                      A
 Frequencies --   1110.1558              1117.3254              1188.8844
 Red. masses --      1.5938                 9.2029                 1.0956
 Frc consts  --      1.1573                 6.7691                 0.9124
 IR Inten    --     25.8180               337.7140                 0.2119

                     46                     47                     48
                      A                      A                      A
 Frequencies --   1202.6141              1221.3918              1288.5236
 Red. masses --      1.1779                 1.8038                 6.4709
 Frc consts  --      1.0037                 1.5854                 6.3300
 IR Inten    --     13.5007                30.3053               233.1917

                     49                     50                     51
                      A                      A                      A
 Frequencies --   1296.7283              1343.2969              1368.7106
 Red. masses --      6.1695                 2.3625                 2.3582
 Frc consts  --      6.1122                 2.5117                 2.6028
 IR Inten    --    120.0779                11.9995                 1.3848

                     52                     53                     54
                      A                      A                      A
 Frequencies --   1381.4645              1385.5290              1469.1118
 Red. masses --      1.3552                 1.5438                 1.0568
 Frc consts  --      1.5238                 1.7461                 1.3438
 IR Inten    --     11.1268                49.2664                 7.8962

                     55                     56                     57
                      A                      A                      A
 Frequencies --   1480.6351              1492.4517              1515.6302
 Red. masses --      1.0493                 2.3977                 3.6128
 Frc consts  --      1.3553                 3.1466                 4.8897
 IR Inten    --     13.6782                51.1798               694.2431

                     58                     59                     60
                      A                      A                      A
 Frequencies --   1519.2781              1555.9966              1629.6857
 Red. masses --      2.9681                 3.6040                 5.5045
 Frc consts  --      4.0365                 5.1411                 8.6134
 IR Inten    --     47.8923                35.5660               113.2183

                     61                     62                     63
                      A                      A                      A
 Frequencies --   1652.5279              1666.2944              3107.1358
 Red. masses --      6.4890                 6.0569                 1.0290
 Frc consts  --     10.4406                 9.9084                 5.8533
 IR Inten    --    108.0506                67.7821                 2.0860

                     64                     65                     66
                      A                      A                      A
 Frequencies --   3207.4466              3212.9661              3213.7346
 Red. masses --      1.0859                 1.1075                 1.0886
 Frc consts  --      6.5819                 6.7363                 6.6241
 IR Inten    --      1.6849                 2.0573                 6.5474

                     67                     68                     69
                      A                      A                      A
 Frequencies --   3221.9060              3221.9216              3229.9802
 Red. masses --      1.0928                 1.1090                 1.0961
 Frc consts  --      6.6838                 6.7829                 6.7377
 IR Inten    --     39.9543                 0.3636                38.9711

                     70                     71                     72
                      A                      A                      A
 Frequencies --   3238.6983              3319.4322              3529.9548
 Red. masses --      1.0946                 1.0987                 1.0777
 Frc consts  --      6.7646                 7.1330                 7.9120
 IR Inten    --     11.5281                 1.9381               227.4292

 - Thermochemistry -
 -------------------
 Temperature   298.150 Kelvin.  Pressure   1.00000 Atm.
 Atom     1 has atomic number  8 and mass  15.99491

 Molecular mass:   238.04121 amu.
 Principal axes and moments of inertia in atomic units:
                           1         2         3
     Eigenvalues --   952.628189802.88960**********
           X            0.99996   0.00532   0.00721
           Y           -0.00543   0.99987   0.01494
           Z           -0.00713  -0.01498   0.99986
 This molecule is an asymmetric top.
 Rotational symmetry number  1.
 Warning -- assumption of classical behavior for rotation
           may cause significant error
 Rotational temperatures (Kelvin)      0.09092     0.00884     0.00839
 Rotational constants (GHZ):           1.89449     0.18410     0.17480
 Zero-point vibrational energy     510059.4 (Joules/Mol)
                                  121.90713 (Kcal/Mol)
 Warning -- explicit consideration of  20 degrees of freedom as
           vibrations may cause significant error
 Vibrational temperatures:     36.79    44.58    92.43   119.34   139.99
          (Kelvin)            188.70   314.30   321.57   345.05   388.79
                              434.42   493.49   508.70   558.48   565.94
                              592.08   663.87   691.71   716.92   755.37
                              907.23   952.26   996.19  1010.06  1016.27
                             1038.79  1120.40  1145.56  1159.05  1225.15
                             1241.72  1358.44  1385.09  1401.88  1415.97
                             1454.49  1459.35  1461.37  1463.43  1509.83
                             1539.96  1570.19  1597.27  1607.58  1710.54
                             1730.29  1757.31  1853.90  1865.70  1932.70
                             1969.27  1987.62  1993.47  2113.72  2130.30
                             2147.31  2180.65  2185.90  2238.73  2344.75
                             2377.62  2397.43  4470.48  4614.80  4622.74
                             4623.85  4635.60  4635.63  4647.22  4659.76
                             4775.92  5078.82

 Zero-point correction=                           0.194271 (Hartree/Particle)
 Thermal correction to Energy=                    0.208542
 Thermal correction to Enthalpy=                  0.209486
 Thermal correction to Gibbs Free Energy=         0.151134
 Sum of electronic and zero-point Energies=          -1120.164549
 Sum of electronic and thermal Energies=             -1120.150279
 Sum of electronic and thermal Enthalpies=           -1120.149335
 Sum of electronic and thermal Free Energies=        -1120.207687

                     E (Thermal)             CV                S
                      KCal/Mol        Cal/Mol-Kelvin    Cal/Mol-Kelvin
 Total                  130.862             53.966            122.813
 Electronic               0.000              0.000              0.000
 Translational            0.889              2.981             42.303
 Rotational               0.889              2.981             32.933
 Vibrational            129.084             48.004             47.577
 Vibration     1          0.593              1.985              6.146
 Vibration     2          0.594              1.984              5.765
 Vibration     3          0.597              1.971              4.323
 Vibration     4          0.600              1.961              3.820
 Vibration     5          0.603              1.951              3.508
 Vibration     6          0.612              1.922              2.929
 Vibration     7          0.646              1.813              1.972
 Vibration     8          0.649              1.805              1.931
 Vibration     9          0.657              1.780              1.804
 Vibration    10          0.674              1.728              1.595
 Vibration    11          0.694              1.670              1.406
 Vibration    12          0.722              1.590              1.198
 Vibration    13          0.730              1.568              1.150
 Vibration    14          0.756              1.495              1.007
 Vibration    15          0.761              1.484              0.987
 Vibration    16          0.775              1.445              0.921
 Vibration    17          0.819              1.336              0.762
 Vibration    18          0.837              1.293              0.708
 Vibration    19          0.854              1.254              0.662
 Vibration    20          0.880              1.195              0.598

 Optimization completed on the basis of negligible forces.
    -- Stationary point found.
 Normal termination of Gaussian 16 at Fri Sep 18 08:13:48 2020.

 ----------------------------------------------------------------------
 #p b3lyp/6-31G(d) scrf=(iefpcm,read,solvent=water) geom=allcheck guess
 =read
 ----------------------------------------------------------------------

 Structure from the checkpoint file:  "SM41_m0.n.2.pdb.xyz.mst.n.w.chk"
 -------------------
 SM41_m0.n.2.pdb.xyz
 -------------------
 Charge =  0 Multiplicity = 1

 SCF Done:  E(RB3LYP) =  -1120.35882029     A.U. after    3 cycles
 Normal termination of Gaussian 16 at Fri Sep 18 08:14:08 2020.

 -----------------------------
 #p B3LYP/6-31G* geom=allcheck
 -----------------------------

 Structure from the checkpoint file:  "SM41_m0.n.2.pdb.xyz.mst.n.w.chk"
 -------------------
 SM41_m0.n.2.pdb.xyz
 -------------------
 Charge =  0 Multiplicity = 1

 SCF Done:  E(RB3LYP) =  -1120.33574796     A.U. after   15 cycles
 Normal termination of Gaussian 16 at Fri Sep 18 08:14:43 2020.
 Gaussian 16:  ES64L-G16RevB.01 20-Dec-2017

 ----------------------------------------------------------------------
 #p mp2/aug-cc-pVDZ scf=(MaxCycle=2000,NoVarAcc,NoIncFock) maxdisk=120G
 B geom=allcheck
 ----------------------------------------------------------------------

 Structure from the checkpoint file:  "SM41_m0.n.2.pdb.xyz.mst.n.w.chk"
 -------------------
 SM41_m0.n.2.pdb.xyz
 -------------------
 Charge =  0 Multiplicity = 1

                         Standard orientation:
 ---------------------------------------------------------------------
 Center     Atomic      Atomic             Coordinates (Angstroms)
 Number     Number       Type             X           Y           Z
 ---------------------------------------------------------------------
      1          8           0       -3.378653   -0.528837    1.501940
      2         16           0       -3.606504    0.120027    0.204348
      3          7           0       -2.193820    0.868400   -0.363225
      4          6           0       -0.928748    0.302882   -0.231081
      5          7           0       -0.759996   -1.005114   -0.171005
      6          8           0        0.629723   -1.181070   -0.089737
      7          6           0        1.243262    0.026771   -0.113585
      8          6           0        2.699627    0.039776   -0.034087
      9          6           0        3.396982    1.258385   -0.080347
     10          6           0        4.786635    1.271337   -0.000096
     11          6           0        5.495010    0.073228    0.126258
     12          6           0        4.806042   -1.140941    0.171816
     13          6           0        3.416072   -1.160984    0.092368
     14          6           0        0.300940    1.013681   -0.202717
     15          6           0       -3.881071   -1.146954   -1.025727
     16          8           0       -4.626527    1.171183    0.103428
     17          1           0       -2.242129    1.882477   -0.257897
     18          1           0        2.850995    2.190237   -0.179110
     19          1           0        5.317553    2.216565   -0.036381
     20          1           0        6.577839    0.086622    0.188814
     21          1           0        5.351405   -2.073355    0.270102
     22          1           0        2.877847   -2.100475    0.128736
     23          1           0        0.443938    2.081040   -0.237976
     24          1           0       -2.992276   -1.777064   -1.051884
     25          1           0       -4.054437   -0.665078   -1.986595
     26          1           0       -4.754813   -1.717683   -0.709627
 ---------------------------------------------------------------------

 SCF Done:  E(RHF) =  -1115.47237086     A.U. after   17 cycles
 E2 =    -0.2451629317D+01 EUMP2 =    -0.11179240001789D+04

 The electronic state is 1-A.
 Alpha  occ. eigenvalues --  -92.23432 -20.66113 -20.56512 -20.56004 -15.64068
 Alpha  occ. eigenvalues --  -15.62775 -11.35119 -11.34899 -11.28641 -11.27927
 Alpha  occ. eigenvalues --  -11.27195 -11.26749 -11.26702 -11.26391 -11.26215
 Alpha  occ. eigenvalues --  -11.25948  -9.20225  -6.88740  -6.88731  -6.88585
 Alpha  occ. eigenvalues --   -1.50173  -1.46320  -1.34000  -1.28769  -1.18778
 Alpha  occ. eigenvalues --   -1.15002  -1.10525  -1.04962  -1.04168  -1.03394
 Alpha  occ. eigenvalues --   -0.89812  -0.88393  -0.85471  -0.82335  -0.79346
 Alpha  occ. eigenvalues --   -0.75991  -0.72407  -0.70354  -0.68347  -0.67317
 Alpha  occ. eigenvalues --   -0.66778  -0.65665  -0.65257  -0.63519  -0.61629
 Alpha  occ. eigenvalues --   -0.60987  -0.60684  -0.59962  -0.57417  -0.55685
 Alpha  occ. eigenvalues --   -0.53194  -0.52836  -0.51629  -0.51169  -0.49251
 Alpha  occ. eigenvalues --   -0.48608  -0.46733  -0.46477  -0.41567  -0.39491
 Alpha  occ. eigenvalues --   -0.35925  -0.32901
 Alpha virt. eigenvalues --    0.02414   0.03109   0.03753   0.04355   0.04816
 Alpha virt. eigenvalues --    0.05032   0.05976   0.06172   0.06759   0.07940
 Alpha virt. eigenvalues --    0.08983   0.09390   0.09694   0.09943   0.10272

 Mulliken charges:
               1
     1  O   -1.161051
     2  S    2.741526
     3  N   -0.956886
     4  C   -0.236868
     5  N   -0.260517
     6  O   -1.080982
     7  C    0.216261
     8  C    1.450573
     9  C    0.566165
    10  C    0.036290
    11  C    0.514482
    12  C    0.209657
    13  C    0.377565
    14  C    1.740253
    15  C    0.110663
    16  O   -1.144252
    17  H   -0.066123
    18  H   -0.581120
    19  H   -0.478268
    20  H   -0.431861
    21  H   -0.439211
    22  H   -0.654282
    23  H   -0.556651
    24  H    0.040006
    25  H    0.020738
    26  H    0.023893
 Sum of Mulliken charges =  -0.00000

 Dipole moment (field-independent basis, Debye):
    X=              5.1107    Y=              1.4487    Z=             -3.4403  Tot=              6.3288
 Quadrupole moment (field-independent basis, Debye-Ang):
   XX=            -97.2267   YY=            -92.6609   ZZ=           -108.5553
   XY=              8.8141   XZ=             14.1362   YZ=              2.0475

 Normal termination of Gaussian 16 at Fri Sep 18 08:37:07 2020.
