 Gaussian 16, Revision B.01,

 ----------------------------------------------------------------------
 #p b3lyp/6-31G(d) opt freq NoSymm scf=(MaxCycle=2000,NoVarAcc,NoIncFoc
 k) scrf=(iefpcm,read,solvent=water)
 ----------------------------------------------------------------------

 -------------------
 SM41_m0.n.8.pdb.xyz
 -------------------
 Symbolic Z-matrix:
 Charge =  0 Multiplicity = 1

 SCF Done:  E(RB3LYP) =  -1120.35779123     A.U. after   13 cycles
 SCF Done:  E(RB3LYP) =  -1120.35780193     A.U. after    9 cycles
 SCF Done:  E(RB3LYP) =  -1120.35779474     A.U. after    8 cycles
 SCF Done:  E(RB3LYP) =  -1120.35778977     A.U. after    8 cycles
 SCF Done:  E(RB3LYP) =  -1120.35778721     A.U. after    7 cycles
 SCF Done:  E(RB3LYP) =  -1120.35777071     A.U. after    9 cycles
 SCF Done:  E(RB3LYP) =  -1120.35774358     A.U. after    9 cycles
 SCF Done:  E(RB3LYP) =  -1120.35770985     A.U. after    9 cycles
 SCF Done:  E(RB3LYP) =  -1120.35770374     A.U. after    8 cycles
 SCF Done:  E(RB3LYP) =  -1120.35769042     A.U. after    8 cycles
 SCF Done:  E(RB3LYP) =  -1120.35777644     A.U. after    9 cycles
 SCF Done:  E(RB3LYP) =  -1120.35775153     A.U. after    9 cycles
 SCF Done:  E(RB3LYP) =  -1120.35765269     A.U. after   10 cycles
 SCF Done:  E(RB3LYP) =  -1120.35769783     A.U. after    9 cycles
 SCF Done:  E(RB3LYP) =  -1120.35769627     A.U. after    8 cycles
 SCF Done:  E(RB3LYP) =  -1120.35769782     A.U. after    8 cycles
 Optimization completed.
    -- Stationary point found.
 Normal termination of Gaussian 16 at Fri Sep 18 08:01:02 2020.

 --------------------------------------------------------------------
 #P Geom=AllCheck Guess=TCheck SCRF=Check GenChk RB3LYP/6-31G(d) Freq
 --------------------------------------------------------------------

 Structure from the checkpoint file:  "SM41_m0.n.8.pdb.xyz.mst.n.w.chk"
 -------------------
 SM41_m0.n.8.pdb.xyz
 -------------------
 Charge =  0 Multiplicity = 1

 SCF Done:  E(RB3LYP) =  -1120.35769782     A.U. after    1 cycles

  Exact polarizability: 293.911  13.559 199.836   5.304   1.884  87.686
 Approx polarizability: 315.979  15.196 248.293   4.781   5.397 104.324

 ******    1 imaginary frequencies (negative Signs) ******

                      1                      2                      3
                      A                      A                      A
 Frequencies --     -5.9585                34.9183                42.2398
 Red. masses --      5.0776                 4.5072                 5.8349
 Frc consts  --      0.0001                 0.0032                 0.0061
 IR Inten    --      4.0894                 1.4284                 7.7675

                      4                      5                      6
                      A                      A                      A
 Frequencies --     67.8821                97.4090               151.5919
 Red. masses --      6.5332                 4.8699                 5.5002
 Frc consts  --      0.0177                 0.0272                 0.0745
 IR Inten    --      0.8175                 3.6449                 5.1659

                      7                      8                      9
                      A                      A                      A
 Frequencies --    216.5442               238.1684               252.0341
 Red. masses --      4.1146                 1.1776                 4.2532
 Frc consts  --      0.1137                 0.0394                 0.1592
 IR Inten    --     12.2261                 0.6266                17.6809

                     10                     11                     12
                      A                      A                      A
 Frequencies --    271.7372               303.6193               330.3098
 Red. masses --      4.3092                 3.4128                 3.4484
 Frc consts  --      0.1875                 0.1854                 0.2217
 IR Inten    --      3.4920                50.7112                26.8517

                     13                     14                     15
                      A                      A                      A
 Frequencies --    345.0772               366.1317               389.0780
 Red. masses --      1.8789                 7.7048                 8.0663
 Frc consts  --      0.1318                 0.6085                 0.7194
 IR Inten    --     88.6122                11.8847                 9.2057

                     16                     17                     18
                      A                      A                      A
 Frequencies --    411.4701               467.4288               480.7751
 Red. masses --      2.9612                 4.8614                 7.2768
 Frc consts  --      0.2954                 0.6258                 0.9910
 IR Inten    --      0.0412                27.6119                72.6433

                     19                     20                     21
                      A                      A                      A
 Frequencies --    497.2919               518.2305               630.6137
 Red. masses --      4.0980                 7.7642                 6.4377
 Frc consts  --      0.5971                 1.2286                 1.5084
 IR Inten    --      3.8754               177.8107                 0.0612

                     22                     23                     24
                      A                      A                      A
 Frequencies --    661.0743               685.9078               703.2638
 Red. masses --      8.3237                 6.3391                 1.7346
 Frc consts  --      2.1432                 1.7572                 0.5055
 IR Inten    --      0.2217                19.3680                48.9988

                     25                     26                     27
                      A                      A                      A
 Frequencies --    706.7375               734.7442               768.0246
 Red. masses --      3.9892                 5.5518                 3.9126
 Frc consts  --      1.1740                 1.7659                 1.3598
 IR Inten    --      1.6541                43.0929                72.2939

                     28                     29                     30
                      A                      A                      A
 Frequencies --    781.1562               807.6559               862.6186
 Red. masses --      1.5892                 1.8825                 1.2543
 Frc consts  --      0.5714                 0.7235                 0.5499
 IR Inten    --     71.6353                 8.3023                 0.0961

                     31                     32                     33
                      A                      A                      A
 Frequencies --    885.8341               943.2374               957.2830
 Red. masses --      5.8712                 1.3935                10.4706
 Frc consts  --      2.7144                 0.7305                 5.6533
 IR Inten    --    240.8168                 2.8877                28.5418

                     34                     35                     36
                      A                      A                      A
 Frequencies --    964.6249               983.6291              1010.6257
 Red. masses --      9.6374                 1.3521                 1.3824
 Frc consts  --      5.2836                 0.7707                 0.8319
 IR Inten    --     44.0913                 0.0161                80.5770

                     37                     38                     39
                      A                      A                      A
 Frequencies --   1013.5839              1015.2242              1017.0865
 Red. masses --      1.2678                 1.3902                 5.2259
 Frc consts  --      0.7674                 0.8442                 3.1851
 IR Inten    --      0.0903                 5.3025                 1.0083

                     40                     41                     42
                      A                      A                      A
 Frequencies --   1046.9930              1055.6316              1088.0343
 Red. masses --      2.5867                 2.8068                 2.4936
 Frc consts  --      1.6707                 1.8428                 1.7393
 IR Inten    --     16.8297                41.3445                11.8092

                     43                     44                     45
                      A                      A                      A
 Frequencies --   1110.4870              1120.0821              1188.0946
 Red. masses --      1.5758                10.9036                 1.0948
 Frc consts  --      1.1449                 8.0597                 0.9105
 IR Inten    --     18.8572               298.2315                 0.2186

                     46                     47                     48
                      A                      A                      A
 Frequencies --   1204.1594              1228.5362              1294.8459
 Red. masses --      1.1467                 2.0373                 5.4441
 Frc consts  --      0.9796                 1.8117                 5.3779
 IR Inten    --      5.7825                16.8592               135.7671

                     49                     50                     51
                      A                      A                      A
 Frequencies --   1302.5891              1355.8879              1369.7399
 Red. masses --      5.7748                 3.4332                 1.9542
 Frc consts  --      5.7730                 3.7188                 2.1602
 IR Inten    --    165.0553                34.2330                 4.9130

                     52                     53                     54
                      A                      A                      A
 Frequencies --   1385.2577              1394.7434              1477.3276
 Red. masses --      1.7215                 1.2036                 1.0792
 Frc consts  --      1.9464                 1.3795                 1.3877
 IR Inten    --    217.9423                21.1981                18.4771

                     55                     56                     57
                      A                      A                      A
 Frequencies --   1478.6694              1487.1156              1505.9088
 Red. masses --      1.0583                 2.8317                 3.5530
 Frc consts  --      1.3633                 3.6897                 4.7472
 IR Inten    --      0.5000               191.6875               369.3220

                     58                     59                     60
                      A                      A                      A
 Frequencies --   1519.3194              1554.7207              1629.1539
 Red. masses --      2.9055                 3.2990                 5.5263
 Frc consts  --      3.9515                 4.6983                 8.6420
 IR Inten    --     28.0311               136.0349               152.1724

                     61                     62                     63
                      A                      A                      A
 Frequencies --   1653.4590              1667.0726              3109.2181
 Red. masses --      6.5123                 6.1119                 1.0294
 Frc consts  --     10.4899                10.0077                 5.8632
 IR Inten    --    131.9169                75.3931                 0.0752

                     64                     65                     66
                      A                      A                      A
 Frequencies --   3207.8088              3211.1706              3214.5186
 Red. masses --      1.0860                 1.1071                 1.0885
 Frc consts  --      6.5841                 6.7259                 6.6266
 IR Inten    --      2.7436                 0.0155                 7.7787

                     67                     68                     69
                      A                      A                      A
 Frequencies --   3221.5588              3223.4034              3230.8551
 Red. masses --      1.1087                 1.0926                 1.0954
 Frc consts  --      6.7796                 6.6884                 6.7370
 IR Inten    --      0.0030                36.1423                38.3050

                     70                     71                     72
                      A                      A                      A
 Frequencies --   3238.8910              3339.8690              3546.3203
 Red. masses --      1.0951                 1.0985                 1.0769
 Frc consts  --      6.7687                 7.2198                 7.9796
 IR Inten    --     13.8004                 5.1202               238.0781

 - Thermochemistry -
 -------------------
 Temperature   298.150 Kelvin.  Pressure   1.00000 Atm.
 Atom     1 has atomic number  8 and mass  15.99491

 Molecular mass:   238.04121 amu.
 Principal axes and moments of inertia in atomic units:
                           1         2         3
     Eigenvalues --  1334.449898662.703919577.50308
           X            0.99995   0.00503   0.00885
           Y           -0.00463   0.99903  -0.04382
           Z           -0.00907   0.04377   0.99900
 This molecule is an asymmetric top.
 Rotational symmetry number  1.
 Warning -- assumption of classical behavior for rotation
           may cause significant error
 Rotational temperatures (Kelvin)      0.06491     0.01000     0.00904
 Rotational constants (GHZ):           1.35242     0.20833     0.18844
    1 imaginary frequencies ignored.
 Zero-point vibrational energy     510065.6 (Joules/Mol)
                                  121.90860 (Kcal/Mol)
 Warning -- explicit consideration of  19 degrees of freedom as
           vibrations may cause significant error
 Vibrational temperatures:     50.24    60.77    97.67   140.15   218.11
          (Kelvin)            311.56   342.67   362.62   390.97   436.84
                              475.24   496.49   526.78   559.80   592.01
                              672.53   691.73   715.49   745.62   907.31
                              951.14   986.87  1011.84  1016.84  1057.13
                             1105.02  1123.91  1162.04  1241.12  1274.52
                             1357.11  1377.32  1387.88  1415.22  1454.06
                             1458.32  1460.68  1463.36  1506.39  1518.82
                             1565.44  1597.74  1611.55  1709.40  1732.52
                             1767.59  1862.99  1874.14  1950.82  1970.75
                             1993.08  2006.72  2125.54  2127.48  2139.63
                             2166.67  2185.96  2236.90  2343.99  2378.96
                             2398.55  4473.47  4615.32  4620.16  4624.98
                             4635.10  4637.76  4648.48  4660.04  4805.33
                             5102.36

 Zero-point correction=                           0.194274 (Hartree/Particle)
 Thermal correction to Energy=                    0.207700
 Thermal correction to Enthalpy=                  0.208644
 Thermal correction to Gibbs Free Energy=         0.152811
 Sum of electronic and zero-point Energies=          -1120.163424
 Sum of electronic and thermal Energies=             -1120.149998
 Sum of electronic and thermal Enthalpies=           -1120.149054
 Sum of electronic and thermal Free Energies=        -1120.204887

                     E (Thermal)             CV                S
                      KCal/Mol        Cal/Mol-Kelvin    Cal/Mol-Kelvin
 Total                  130.334             52.029            117.511
 Electronic               0.000              0.000              0.000
 Translational            0.889              2.981             42.303
 Rotational               0.889              2.981             33.070
 Vibrational            128.556             46.068             42.138
 Vibration     1          0.594              1.983              5.528
 Vibration     2          0.595              1.980              5.151
 Vibration     3          0.598              1.970              4.214
 Vibration     4          0.603              1.951              3.506
 Vibration     5          0.619              1.901              2.652
 Vibration     6          0.645              1.816              1.988
 Vibration     7          0.656              1.782              1.817
 Vibration     8          0.664              1.759              1.716
 Vibration     9          0.675              1.725              1.585
 Vibration    10          0.695              1.667              1.397
 Vibration    11          0.713              1.615              1.259
 Vibration    12          0.723              1.585              1.189
 Vibration    13          0.739              1.542              1.096
 Vibration    14          0.757              1.494              1.004
 Vibration    15          0.775              1.445              0.921
 Vibration    16          0.825              1.322              0.745
 Vibration    17          0.837              1.293              0.708
 Vibration    18          0.853              1.256              0.665
 Vibration    19          0.873              1.210              0.614

                           ! Non-Optimized Parameters !
 Normal termination of Gaussian 16 at Fri Sep 18 08:08:12 2020.

 ----------------------------------------------------------------------
 #p b3lyp/6-31G(d) scrf=(iefpcm,read,solvent=water) geom=allcheck guess
 =read
 ----------------------------------------------------------------------

 Structure from the checkpoint file:  "SM41_m0.n.8.pdb.xyz.mst.n.w.chk"
 -------------------
 SM41_m0.n.8.pdb.xyz
 -------------------
 Charge =  0 Multiplicity = 1

 SCF Done:  E(RB3LYP) =  -1120.35770032     A.U. after    5 cycles
 Normal termination of Gaussian 16 at Fri Sep 18 08:08:44 2020.

 -----------------------------
 #p B3LYP/6-31G* geom=allcheck
 -----------------------------

 Structure from the checkpoint file:  "SM41_m0.n.8.pdb.xyz.mst.n.w.chk"
 -------------------
 SM41_m0.n.8.pdb.xyz
 -------------------
 Charge =  0 Multiplicity = 1

 SCF Done:  E(RB3LYP) =  -1120.33644430     A.U. after   15 cycles
 Normal termination of Gaussian 16 at Fri Sep 18 08:09:19 2020.
 Gaussian 16:  ES64L-G16RevB.01 20-Dec-2017

 ----------------------------------------------------------------------
 #p mp2/aug-cc-pVDZ scf=(MaxCycle=2000,NoVarAcc,NoIncFock) maxdisk=120G
 B geom=allcheck
 ----------------------------------------------------------------------

 Structure from the checkpoint file:  "SM41_m0.n.8.pdb.xyz.mst.n.w.chk"
 -------------------
 SM41_m0.n.8.pdb.xyz
 -------------------
 Charge =  0 Multiplicity = 1

                         Standard orientation:
 ---------------------------------------------------------------------
 Center     Atomic      Atomic             Coordinates (Angstroms)
 Number     Number       Type             X           Y           Z
 ---------------------------------------------------------------------
      1          8           0        2.536442   -1.354948   -0.979370
      2         16           0        3.345559   -0.416502   -0.194018
      3          7           0        2.401412    0.927342    0.185905
      4          6           0        1.014083    0.978626    0.108828
      5          7           0        0.429609    2.164162    0.082321
      6          8           0       -0.947541    1.880890    0.055193
      7          6           0       -1.133681    0.539827    0.062255
      8          6           0       -2.506657    0.048536    0.024232
      9          6           0       -3.587303    0.944388   -0.004985
     10          6           0       -4.893390    0.463007   -0.045339
     11          6           0       -5.136127   -0.912463   -0.056839
     12          6           0       -4.063942   -1.808355   -0.027271
     13          6           0       -2.756431   -1.333348    0.012847
     14          6           0        0.078538   -0.090236    0.101777
     15          6           0        3.686782   -1.153347    1.401358
     16          8           0        4.590959    0.125557   -0.746872
     17          1           0        2.898906    1.810601    0.091746
     18          1           0       -3.396712    2.010912    0.003490
     19          1           0       -5.722252    1.162180   -0.068365
     20          1           0       -6.154327   -1.284599   -0.088906
     21          1           0       -4.246655   -2.877467   -0.036496
     22          1           0       -1.926584   -2.031122    0.034277
     23          1           0        0.286448   -1.145107    0.099755
     24          1           0        2.741309   -1.439381    1.861246
     25          1           0        4.214728   -0.422608    2.012743
     26          1           0        4.308936   -2.031708    1.224430
 ---------------------------------------------------------------------

 SCF Done:  E(RHF) =  -1115.47354749     A.U. after   16 cycles
 E2 =    -0.2450821822D+01 EUMP2 =    -0.11179243693118D+04

 The electronic state is 1-A.
 Alpha  occ. eigenvalues --  -92.24903 -20.65412 -20.57713 -20.57629 -15.64128
 Alpha  occ. eigenvalues --  -15.62332 -11.34857 -11.34026 -11.30448 -11.27390
 Alpha  occ. eigenvalues --  -11.26603 -11.26266 -11.26213 -11.25902 -11.25765
 Alpha  occ. eigenvalues --  -11.24948  -9.21642  -6.90184  -6.90155  -6.90003
 Alpha  occ. eigenvalues --   -1.49438  -1.47801  -1.35727  -1.28827  -1.18262
 Alpha  occ. eigenvalues --   -1.14798  -1.09824  -1.06017  -1.03672  -1.02920
 Alpha  occ. eigenvalues --   -0.89761  -0.88260  -0.85079  -0.81944  -0.80574
 Alpha  occ. eigenvalues --   -0.75161  -0.73251  -0.69779  -0.69703  -0.67522
 Alpha  occ. eigenvalues --   -0.66535  -0.66225  -0.64893  -0.63254  -0.62348
 Alpha  occ. eigenvalues --   -0.61471  -0.60985  -0.59989  -0.57103  -0.55248
 Alpha  occ. eigenvalues --   -0.52659  -0.52533  -0.51649  -0.51157  -0.50961
 Alpha  occ. eigenvalues --   -0.48524  -0.48477  -0.47908  -0.40928  -0.38911
 Alpha  occ. eigenvalues --   -0.35446  -0.32250
 Alpha virt. eigenvalues --    0.02540   0.03114   0.03887   0.04589   0.04864
 Alpha virt. eigenvalues --    0.05339   0.05882   0.06308   0.06610   0.07521
 Alpha virt. eigenvalues --    0.09274   0.09562   0.09677   0.10098   0.10801

 Mulliken charges:
               1
     1  O   -1.154111
     2  S    2.710226
     3  N   -0.868646
     4  C   -0.169346
     5  N   -0.291654
     6  O   -1.099630
     7  C    0.074389
     8  C    1.513833
     9  C    0.259410
    10  C    0.276170
    11  C    0.479414
    12  C    0.062705
    13  C    0.521768
    14  C    1.920880
    15  C    0.123343
    16  O   -1.117154
    17  H   -0.066574
    18  H   -0.653031
    19  H   -0.440291
    20  H   -0.436579
    21  H   -0.484812
    22  H   -0.560785
    23  H   -0.653515
    24  H   -0.009387
    25  H    0.024504
    26  H    0.038873
 Sum of Mulliken charges =  -0.00000

 Dipole moment (field-independent basis, Debye):
    X=             -2.0535    Y=             -2.7740    Z=              4.1755  Tot=              5.4173
 Quadrupole moment (field-independent basis, Debye-Ang):
   XX=            -90.1584   YY=           -100.6822   ZZ=           -105.3331
   XY=              0.4378   XZ=             16.7499   YZ=             -4.9723

 Normal termination of Gaussian 16 at Fri Sep 18 08:27:54 2020.
