 Gaussian 16, Revision B.01,

 ----------------------------------------------------------------------
 #p b3lyp/6-31G(d) opt freq NoSymm scf=(MaxCycle=2000,NoVarAcc,NoIncFoc
 k) scrf=(iefpcm,read,solvent=water)
 ----------------------------------------------------------------------

 -------------------
 SM41_m0.n.1.pdb.xyz
 -------------------
 Symbolic Z-matrix:
 Charge =  0 Multiplicity = 1

 SCF Done:  E(RB3LYP) =  -1120.35743802     A.U. after   13 cycles
 SCF Done:  E(RB3LYP) =  -1120.35744652     A.U. after    9 cycles
 SCF Done:  E(RB3LYP) =  -1120.35745170     A.U. after    9 cycles
 SCF Done:  E(RB3LYP) =  -1120.35745182     A.U. after    9 cycles
 SCF Done:  E(RB3LYP) =  -1120.35745968     A.U. after    8 cycles
 SCF Done:  E(RB3LYP) =  -1120.35746199     A.U. after    8 cycles
 SCF Done:  E(RB3LYP) =  -1120.35746194     A.U. after    7 cycles
 SCF Done:  E(RB3LYP) =  -1120.35745597     A.U. after    8 cycles
 SCF Done:  E(RB3LYP) =  -1120.35745497     A.U. after    7 cycles
 SCF Done:  E(RB3LYP) =  -1120.35745386     A.U. after    7 cycles
 SCF Done:  E(RB3LYP) =  -1120.35745293     A.U. after    7 cycles
 Optimization completed.
    -- Stationary point found.
 Normal termination of Gaussian 16 at Tue Sep 22 18:17:04 2020.

 --------------------------------------------------------------------
 #P Geom=AllCheck Guess=TCheck SCRF=Check GenChk RB3LYP/6-31G(d) Freq
 --------------------------------------------------------------------

 Structure from the checkpoint file:  "SM41_m0.n.1.pdb.xyz.mst.n.w.chk"
 -------------------
 SM41_m0.n.1.pdb.xyz
 -------------------
 Charge =  0 Multiplicity = 1

 SCF Done:  E(RB3LYP) =  -1120.35745293     A.U. after    1 cycles

  Exact polarizability: 297.536 -13.924 196.923   9.962   8.806  90.220
 Approx polarizability: 311.659 -14.284 247.903   9.028  13.854 112.167

                      1                      2                      3
                      A                      A                      A
 Frequencies --     25.8820                43.3208                55.7073
 Red. masses --      4.1323                 6.9987                 6.1225
 Frc consts  --      0.0016                 0.0077                 0.0112
 IR Inten    --      0.5016                11.5743                 2.5846

                      4                      5                      6
                      A                      A                      A
 Frequencies --     70.4509                91.3497               153.3965
 Red. masses --      5.5819                 5.3914                 5.8161
 Frc consts  --      0.0163                 0.0265                 0.0806
 IR Inten    --      4.0574                 1.1051                 8.1285

                      7                      8                      9
                      A                      A                      A
 Frequencies --    219.6979               225.0021               226.9552
 Red. masses --      4.2712                 1.1844                 2.9659
 Frc consts  --      0.1215                 0.0353                 0.0900
 IR Inten    --      2.1021                 1.3719                 4.9893

                     10                     11                     12
                      A                      A                      A
 Frequencies --    281.9099               316.8004               335.9760
 Red. masses --      6.5031                 5.5715                 5.1566
 Frc consts  --      0.3045                 0.3295                 0.3429
 IR Inten    --      6.8620                 5.6708                 1.1952

                     13                     14                     15
                      A                      A                      A
 Frequencies --    366.2876               395.4098               411.5900
 Red. masses --      6.8393                 3.8410                 2.9478
 Frc consts  --      0.5406                 0.3538                 0.2942
 IR Inten    --     12.4667                30.1833                 0.0032

                     16                     17                     18
                      A                      A                      A
 Frequencies --    455.7964               480.7032               500.4611
 Red. masses --      6.9140                 6.2794                 4.1506
 Frc consts  --      0.8463                 0.8549                 0.6125
 IR Inten    --     20.6530                57.3793                 9.5576

                     19                     20                     21
                      A                      A                      A
 Frequencies --    517.7783               578.9313               630.5877
 Red. masses --      7.0472                 2.7327                 6.4309
 Frc consts  --      1.1132                 0.5396                 1.5066
 IR Inten    --    130.6635               136.1085                 0.2536

                     22                     23                     24
                      A                      A                      A
 Frequencies --    669.0276               686.7399               703.4203
 Red. masses --      7.0230                 5.8199                 1.7255
 Frc consts  --      1.8521                 1.6171                 0.5030
 IR Inten    --      4.2237                17.7361                49.3096

                     25                     26                     27
                      A                      A                      A
 Frequencies --    712.3420               744.2259               784.7354
 Red. masses --      3.9970                 5.9848                 1.5942
 Frc consts  --      1.1950                 1.9530                 0.5784
 IR Inten    --     20.4209               118.9376                82.9246

                     28                     29                     30
                      A                      A                      A
 Frequencies --    800.3531               816.1983               859.2990
 Red. masses --      2.6044                 1.7250                 3.8505
 Frc consts  --      0.9829                 0.6771                 1.6751
 IR Inten    --     38.2417                21.3702               208.6263

                     31                     32                     33
                      A                      A                      A
 Frequencies --    862.8799               942.0966               959.6472
 Red. masses --      1.2567                 1.3960                 9.6912
 Frc consts  --      0.5513                 0.7300                 5.2584
 IR Inten    --      0.3721                 2.8676                 8.3920

                     34                     35                     36
                      A                      A                      A
 Frequencies --    966.9823               984.7680              1010.9893
 Red. masses --     10.8803                 1.3528                 1.3813
 Frc consts  --      5.9942                 0.7729                 0.8318
 IR Inten    --     45.1018                 0.0566                41.0082

                     37                     38                     39
                      A                      A                      A
 Frequencies --   1014.4225              1016.7164              1021.2872
 Red. masses --      1.2687                 5.9154                 1.3765
 Frc consts  --      0.7692                 3.6028                 0.8459
 IR Inten    --      0.0448                 0.6923                33.0061

                     40                     41                     42
                      A                      A                      A
 Frequencies --   1043.9781              1054.4283              1080.7884
 Red. masses --      2.6941                 2.8685                 2.4632
 Frc consts  --      1.7300                 1.8791                 1.6953
 IR Inten    --     19.9833                32.3073                 9.4701

                     43                     44                     45
                      A                      A                      A
 Frequencies --   1109.9705              1120.5207              1190.2637
 Red. masses --      1.5957                 9.4835                 1.0950
 Frc consts  --      1.1583                 7.0155                 0.9140
 IR Inten    --     21.1978               259.5889                 0.1713

                     46                     47                     48
                      A                      A                      A
 Frequencies --   1204.5354              1221.0533              1280.8836
 Red. masses --      1.1846                 2.0399                 8.9804
 Frc consts  --      1.0126                 1.7919                 8.6809
 IR Inten    --      8.8236                19.2943               330.5995

                     49                     50                     51
                      A                      A                      A
 Frequencies --   1295.4811              1354.2428              1368.6228
 Red. masses --      4.5109                 3.4674                 1.9170
 Frc consts  --      4.4604                 3.7467                 2.1156
 IR Inten    --     16.0570                26.8011                 3.8430

                     52                     53                     54
                      A                      A                      A
 Frequencies --   1394.9822              1398.6746              1477.0953
 Red. masses --      1.6396                 1.2301                 1.0756
 Frc consts  --      1.8798                 1.4178                 1.3827
 IR Inten    --    191.7764                25.7359                10.6960

                     55                     56                     57
                      A                      A                      A
 Frequencies --   1479.1180              1485.2703              1504.9426
 Red. masses --      1.1350                 2.5807                 3.4076
 Frc consts  --      1.4630                 3.3543                 4.5472
 IR Inten    --     22.3239               188.4071               323.0784

                     58                     59                     60
                      A                      A                      A
 Frequencies --   1521.6109              1555.2675              1628.1179
 Red. masses --      2.5231                 3.1033                 5.4771
 Frc consts  --      3.4418                 4.4226                 8.5541
 IR Inten    --     66.0340                63.5369               135.9887

                     61                     62                     63
                      A                      A                      A
 Frequencies --   1651.5474              1665.7400              3112.1300
 Red. masses --      6.4323                 5.9940                 1.0299
 Frc consts  --     10.3370                 9.7989                 5.8769
 IR Inten    --    111.3426                61.3909                 0.3028

                     64                     65                     66
                      A                      A                      A
 Frequencies --   3208.1912              3212.1914              3214.2227
 Red. masses --      1.0859                 1.1067                 1.0885
 Frc consts  --      6.5849                 6.7278                 6.6258
 IR Inten    --      2.3270                 0.1704                 6.2649

                     67                     68                     69
                      A                      A                      A
 Frequencies --   3222.6172              3227.9154              3230.7605
 Red. masses --      1.0926                 1.1089                 1.0958
 Frc consts  --      6.6856                 6.8073                 6.7386
 IR Inten    --     37.9811                 0.0552                39.7693

                     70                     71                     72
                      A                      A                      A
 Frequencies --   3238.3638              3345.8159              3497.0676
 Red. masses --      1.0949                 1.0986                 1.0756
 Frc consts  --      6.7653                 7.2457                 7.7499
 IR Inten    --     12.7550                 7.8588               162.8488

 - Thermochemistry -
 -------------------
 Temperature   298.150 Kelvin.  Pressure   1.00000 Atm.
 Atom     1 has atomic number  8 and mass  15.99491

 Molecular mass:   238.04121 amu.
 Principal axes and moments of inertia in atomic units:
                           1         2         3
     Eigenvalues --  1272.810298829.939349662.08049
           X            0.99992  -0.00052   0.01263
           Y            0.00044   0.99998   0.00629
           Z           -0.01263  -0.00629   0.99990
 This molecule is an asymmetric top.
 Rotational symmetry number  1.
 Warning -- assumption of classical behavior for rotation
           may cause significant error
 Rotational temperatures (Kelvin)      0.06805     0.00981     0.00896
 Rotational constants (GHZ):           1.41792     0.20439     0.18679
 Zero-point vibrational energy     511622.1 (Joules/Mol)
                                  122.28062 (Kcal/Mol)
 Warning -- explicit consideration of  20 degrees of freedom as
           vibrations may cause significant error
 Vibrational temperatures:     37.24    62.33    80.15   101.36   131.43
          (Kelvin)            220.70   316.10   323.73   326.54   405.61
                              455.81   483.39   527.01   568.91   592.19
                              655.79   691.62   720.05   744.97   832.95
                              907.28   962.58   988.07  1012.06  1024.90
                             1070.78  1129.06  1151.53  1174.33  1236.34
                             1241.49  1355.47  1380.72  1391.27  1416.86
                             1454.59  1459.53  1462.83  1469.40  1502.05
                             1517.09  1555.01  1597.00  1612.18  1712.52
                             1733.06  1756.82  1842.91  1863.91  1948.45
                             1969.14  2007.07  2012.38  2125.21  2128.12
                             2136.97  2165.28  2189.26  2237.68  2342.50
                             2376.21  2396.63  4477.66  4615.87  4621.63
                             4624.55  4636.63  4644.25  4648.34  4659.28
                             4813.88  5031.50

 Zero-point correction=                           0.194867 (Hartree/Particle)
 Thermal correction to Energy=                    0.208941
 Thermal correction to Enthalpy=                  0.209885
 Thermal correction to Gibbs Free Energy=         0.151908
 Sum of electronic and zero-point Energies=          -1120.162586
 Sum of electronic and thermal Energies=             -1120.148512
 Sum of electronic and thermal Enthalpies=           -1120.147568
 Sum of electronic and thermal Free Energies=        -1120.205545

                     E (Thermal)             CV                S
                      KCal/Mol        Cal/Mol-Kelvin    Cal/Mol-Kelvin
 Total                  131.112             53.432            122.024
 Electronic               0.000              0.000              0.000
 Translational            0.889              2.981             42.303
 Rotational               0.889              2.981             33.051
 Vibrational            129.335             47.471             46.669
 Vibration     1          0.593              1.985              6.122
 Vibration     2          0.595              1.980              5.101
 Vibration     3          0.596              1.975              4.604
 Vibration     4          0.598              1.968              4.141
 Vibration     5          0.602              1.955              3.631
 Vibration     6          0.619              1.899              2.630
 Vibration     7          0.647              1.811              1.962
 Vibration     8          0.650              1.803              1.918
 Vibration     9          0.651              1.800              1.903
 Vibration    10          0.681              1.707              1.522
 Vibration    11          0.704              1.642              1.327
 Vibration    12          0.717              1.604              1.231
 Vibration    13          0.739              1.542              1.095
 Vibration    14          0.762              1.480              0.980
 Vibration    15          0.776              1.445              0.921
 Vibration    16          0.814              1.348              0.778
 Vibration    17          0.837              1.293              0.708
 Vibration    18          0.856              1.249              0.657
 Vibration    19          0.873              1.211              0.615
 Vibration    20          0.936              1.077              0.487

 Optimization completed.
    -- Stationary point found.
 Normal termination of Gaussian 16 at Tue Sep 22 18:22:50 2020.

 ----------------------------------------------------------------------
 #p b3lyp/6-31G(d) scrf=(iefpcm,read,solvent=water) geom=allcheck guess
 =read
 ----------------------------------------------------------------------

 Structure from the checkpoint file:  "SM41_m0.n.1.pdb.xyz.mst.n.w.chk"
 -------------------
 SM41_m0.n.1.pdb.xyz
 -------------------
 Charge =  0 Multiplicity = 1

 SCF Done:  E(RB3LYP) =  -1120.35745439     A.U. after    5 cycles
 Normal termination of Gaussian 16 at Tue Sep 22 18:23:13 2020.

 -----------------------------
 #p B3LYP/6-31G* geom=allcheck
 -----------------------------

 Structure from the checkpoint file:  "SM41_m0.n.1.pdb.xyz.mst.n.w.chk"
 -------------------
 SM41_m0.n.1.pdb.xyz
 -------------------
 Charge =  0 Multiplicity = 1

 SCF Done:  E(RB3LYP) =  -1120.33528094     A.U. after   15 cycles
 Normal termination of Gaussian 16 at Tue Sep 22 18:23:41 2020.
 Gaussian 16:  ES64L-G16RevB.01 20-Dec-2017

 ----------------------------------------------------------------------
 #p mp2/aug-cc-pVDZ scf=(MaxCycle=2000,NoVarAcc,NoIncFock) maxdisk=120G
 B geom=allcheck
 ----------------------------------------------------------------------

 Structure from the checkpoint file:  "SM41_m0.n.1.pdb.xyz.mst.n.w.chk"
 -------------------
 SM41_m0.n.1.pdb.xyz
 -------------------
 Charge =  0 Multiplicity = 1

                         Standard orientation:
 ---------------------------------------------------------------------
 Center     Atomic      Atomic             Coordinates (Angstroms)
 Number     Number       Type             X           Y           Z
 ---------------------------------------------------------------------
      1          8           0       -2.535068   -1.682962    0.086345
      2         16           0       -3.308262   -0.441122    0.214934
      3          7           0       -2.374493    0.795514   -0.497258
      4          6           0       -0.995799    0.872462   -0.265680
      5          7           0       -0.454522    2.061296   -0.069551
      6          8           0        0.923631    1.815175    0.014553
      7          6           0        1.156476    0.486089   -0.113902
      8          6           0        2.542747    0.037511   -0.043337
      9          6           0        2.845578   -1.331091   -0.139536
     10          6           0        4.168277   -1.760303   -0.074517
     11          6           0        5.201516   -0.833326    0.087028
     12          6           0        4.905834    0.528254    0.183888
     13          6           0        3.584830    0.964927    0.119489
     14          6           0       -0.029786   -0.167389   -0.299505
     15          6           0       -4.700513   -0.457661   -0.908593
     16          8           0       -3.777123   -0.042597    1.551061
     17          1           0       -2.840690    1.700838   -0.405046
     18          1           0        2.046578   -2.053844   -0.263206
     19          1           0        4.393474   -2.818758   -0.149397
     20          1           0        6.230930   -1.170980    0.137368
     21          1           0        5.704651    1.251219    0.309325
     22          1           0        3.351158    2.020360    0.193358
     23          1           0       -0.209213   -1.217826   -0.440372
     24          1           0       -4.342095   -0.719306   -1.902552
     25          1           0       -5.171069    0.525229   -0.904674
     26          1           0       -5.394929   -1.210416   -0.533771
 ---------------------------------------------------------------------

 SCF Done:  E(RHF) =  -1115.47135994     A.U. after   16 cycles
 E2 =    -0.2452615708D+01 EUMP2 =    -0.11179239756523D+04

 The electronic state is 1-A.
 Alpha  occ. eigenvalues --  -92.24548 -20.65321 -20.57597 -20.57323 -15.64421
 Alpha  occ. eigenvalues --  -15.62602 -11.34401 -11.33573 -11.30711 -11.27068
 Alpha  occ. eigenvalues --  -11.26236 -11.25930 -11.25886 -11.25565 -11.25459
 Alpha  occ. eigenvalues --  -11.24466  -9.21360  -6.89876  -6.89847  -6.89733
 Alpha  occ. eigenvalues --   -1.49434  -1.47341  -1.35130  -1.28723  -1.17939
 Alpha  occ. eigenvalues --   -1.14733  -1.09552  -1.06095  -1.03320  -1.02593
 Alpha  occ. eigenvalues --   -0.89151  -0.87901  -0.84762  -0.81340  -0.80316
 Alpha  occ. eigenvalues --   -0.74687  -0.73112  -0.69700  -0.68964  -0.67745
 Alpha  occ. eigenvalues --   -0.66193  -0.65655  -0.64463  -0.63065  -0.62238
 Alpha  occ. eigenvalues --   -0.61461  -0.60603  -0.59586  -0.57524  -0.54583
 Alpha  occ. eigenvalues --   -0.52546  -0.52155  -0.51868  -0.50805  -0.50299
 Alpha  occ. eigenvalues --   -0.48464  -0.48209  -0.47661  -0.40583  -0.39162
 Alpha  occ. eigenvalues --   -0.35108  -0.31874
 Alpha virt. eigenvalues --    0.02663   0.03218   0.04109   0.04692   0.04753
 Alpha virt. eigenvalues --    0.05317   0.06074   0.06448   0.06638   0.07460
 Alpha virt. eigenvalues --    0.09253   0.09767   0.09924   0.10432   0.11188

 Mulliken charges:
               1
     1  O   -1.203926
     2  S    2.818059
     3  N   -0.971709
     4  C   -0.122097
     5  N   -0.313927
     6  O   -1.063516
     7  C    0.082187
     8  C    1.485098
     9  C    0.532925
    10  C    0.071506
    11  C    0.510237
    12  C    0.266397
    13  C    0.295135
    14  C    1.770999
    15  C    0.128373
    16  O   -1.159150
    17  H   -0.023731
    18  H   -0.562227
    19  H   -0.483425
    20  H   -0.435312
    21  H   -0.439766
    22  H   -0.663488
    23  H   -0.587958
    24  H    0.040573
    25  H   -0.018010
    26  H    0.046754
 Sum of Mulliken charges =  -0.00000

 Dipole moment (field-independent basis, Debye):
    X=             -0.5538    Y=             -1.0077    Z=             -3.7359  Tot=              3.9089
 Quadrupole moment (field-independent basis, Debye-Ang):
   XX=            -66.5434   YY=           -103.8068   ZZ=           -109.1143
   XY=             -5.5752   XZ=             16.7841   YZ=              1.3549

 Normal termination of Gaussian 16 at Tue Sep 22 18:39:27 2020.
