 Gaussian 16, Revision B.01,

 ----------------------------------------------------------------------
 #p b3lyp/6-31G(d) opt freq NoSymm scf=(MaxCycle=2000,NoVarAcc,NoIncFoc
 k) scrf=(iefpcm,read,solvent=water)
 ----------------------------------------------------------------------

 -------------------
 SM41_m0.n.5.pdb.xyz
 -------------------
 Symbolic Z-matrix:
 Charge =  0 Multiplicity = 1

 SCF Done:  E(RB3LYP) =  -1120.35883210     A.U. after   13 cycles
 SCF Done:  E(RB3LYP) =  -1120.35882844     A.U. after    9 cycles
 SCF Done:  E(RB3LYP) =  -1120.35882544     A.U. after    8 cycles
 SCF Done:  E(RB3LYP) =  -1120.35883382     A.U. after    8 cycles
 SCF Done:  E(RB3LYP) =  -1120.35882441     A.U. after    8 cycles
 SCF Done:  E(RB3LYP) =  -1120.35882134     A.U. after    8 cycles
 SCF Done:  E(RB3LYP) =  -1120.35883363     A.U. after    9 cycles
 SCF Done:  E(RB3LYP) =  -1120.35881833     A.U. after    9 cycles
 SCF Done:  E(RB3LYP) =  -1120.35881670     A.U. after    8 cycles
 SCF Done:  E(RB3LYP) =  -1120.35883209     A.U. after    9 cycles
 SCF Done:  E(RB3LYP) =  -1120.35883196     A.U. after    3 cycles
 SCF Done:  E(RB3LYP) =  -1120.35883196     A.U. after    2 cycles
 SCF Done:  E(RB3LYP) =  -1120.35882087     A.U. after    9 cycles
 SCF Done:  E(RB3LYP) =  -1120.35882091     A.U. after    8 cycles
 SCF Done:  E(RB3LYP) =  -1120.35882091     A.U. after    7 cycles
 SCF Done:  E(RB3LYP) =  -1120.35882091     A.U. after    7 cycles
 Optimization completed.
    -- Stationary point found.
 Normal termination of Gaussian 16 at Tue Sep 22 18:34:53 2020.

 --------------------------------------------------------------------
 #P Geom=AllCheck Guess=TCheck SCRF=Check GenChk RB3LYP/6-31G(d) Freq
 --------------------------------------------------------------------

 Structure from the checkpoint file:  "SM41_m0.n.5.pdb.xyz.mst.n.w.chk"
 -------------------
 SM41_m0.n.5.pdb.xyz
 -------------------
 Charge =  0 Multiplicity = 1

 SCF Done:  E(RB3LYP) =  -1120.35882091     A.U. after    1 cycles

  Exact polarizability: 302.563  -5.498 193.059   8.913  -6.437  88.952
 Approx polarizability: 314.964 -11.471 244.555  10.598 -13.154 109.276

                      1                      2                      3
                      A                      A                      A
 Frequencies --     25.0677                31.1586                63.7050
 Red. masses --      4.3995                 6.3496                 4.9885
 Frc consts  --      0.0016                 0.0036                 0.0119
 IR Inten    --      1.7417                 3.2206                10.1133

                      4                      5                      6
                      A                      A                      A
 Frequencies --     82.7721                97.3937               130.5961
 Red. masses --      6.2766                 5.4013                 5.3958
 Frc consts  --      0.0253                 0.0302                 0.0542
 IR Inten    --     13.9474                 2.8656                 4.8408

                      7                      8                      9
                      A                      A                      A
 Frequencies --    218.3033               223.3691               239.7924
 Red. masses --      3.7266                 1.1645                 6.8247
 Frc consts  --      0.1046                 0.0342                 0.2312
 IR Inten    --      2.1530                 0.0403                 0.1993

                     10                     11                     12
                      A                      A                      A
 Frequencies --    270.0898               301.7351               342.2436
 Red. masses --      5.0443                 5.6651                 2.7206
 Frc consts  --      0.2168                 0.3039                 0.1878
 IR Inten    --      0.9830                 7.8511                32.3487

                     13                     14                     15
                      A                      A                      A
 Frequencies --    348.2546               387.7558               393.2722
 Red. masses --      1.5806                 7.2478                 7.6579
 Frc consts  --      0.1129                 0.6421                 0.6978
 IR Inten    --    136.7146                12.7043                 4.7141

                     16                     17                     18
                      A                      A                      A
 Frequencies --    411.4419               461.4977               480.6796
 Red. masses --      2.9562                 4.8753                 7.9153
 Frc consts  --      0.2948                 0.6118                 1.0775
 IR Inten    --      0.0521                50.0662                80.3254

                     19                     20                     21
                      A                      A                      A
 Frequencies --    498.2133               524.9059               630.5768
 Red. masses --      4.2130                 6.2812                 6.4451
 Frc consts  --      0.6161                 1.0197                 1.5099
 IR Inten    --      4.7699               111.8539                 0.0154

                     22                     23                     24
                      A                      A                      A
 Frequencies --    661.8190               692.3859               702.0174
 Red. masses --      8.1960                 5.7978                 1.8880
 Frc consts  --      2.1151                 1.6376                 0.5482
 IR Inten    --      1.3740                22.6260                30.2609

                     25                     26                     27
                      A                      A                      A
 Frequencies --    706.3687               722.0774               779.1831
 Red. masses --      3.5811                 4.6437                 1.4415
 Frc consts  --      1.0528                 1.4265                 0.5156
 IR Inten    --     11.9529                27.0257               108.1330

                     28                     29                     30
                      A                      A                      A
 Frequencies --    796.1906               805.9835               851.5937
 Red. masses --      5.7510                 2.0892                 5.8407
 Frc consts  --      2.1480                 0.7996                 2.4956
 IR Inten    --     39.9208                 6.5468               277.4989

                     31                     32                     33
                      A                      A                      A
 Frequencies --    863.0269               944.0912               962.6995
 Red. masses --      1.2544                 1.3894                 8.7279
 Frc consts  --      0.5505                 0.7296                 4.7658
 IR Inten    --      0.0802                 3.0908                10.6102

                     34                     35                     36
                      A                      A                      A
 Frequencies --    974.2359               984.1548              1011.2624
 Red. masses --     10.1179                 1.3524                 1.3509
 Frc consts  --      5.6581                 0.7718                 0.8140
 IR Inten    --     61.9083                 0.0148                24.5351

                     37                     38                     39
                      A                      A                      A
 Frequencies --   1014.3390              1015.7794              1017.1616
 Red. masses --      1.2691                 1.5962                 4.0247
 Frc consts  --      0.7694                 0.9704                 2.4534
 IR Inten    --      0.0515                52.1829                 3.7624

                     40                     41                     42
                      A                      A                      A
 Frequencies --   1049.1041              1070.2967              1091.2979
 Red. masses --      2.4396                 2.6690                 3.3486
 Frc consts  --      1.5820                 1.8014                 2.3496
 IR Inten    --      5.3623                27.1952                50.2463

                     43                     44                     45
                      A                      A                      A
 Frequencies --   1110.0133              1117.3465              1188.8286
 Red. masses --      1.5908                 9.2435                 1.0965
 Frc consts  --      1.1548                 6.7993                 0.9130
 IR Inten    --     25.0319               338.5937                 0.2577

                     46                     47                     48
                      A                      A                      A
 Frequencies --   1202.1835              1221.1317              1288.5202
 Red. masses --      1.1838                 1.7934                 6.4417
 Frc consts  --      1.0080                 1.5756                 6.3013
 IR Inten    --     14.0136                29.3237               232.5517

                     49                     50                     51
                      A                      A                      A
 Frequencies --   1296.8045              1343.0834              1368.5987
 Red. masses --      6.1580                 2.3457                 2.3789
 Frc consts  --      6.1015                 2.4930                 2.6253
 IR Inten    --    119.8366                12.5324                 1.3713

                     52                     53                     54
                      A                      A                      A
 Frequencies --   1381.5318              1385.3543              1469.3128
 Red. masses --      1.3941                 1.4957                 1.0567
 Frc consts  --      1.5677                 1.6913                 1.3441
 IR Inten    --     11.8017                48.9169                 7.9038

                     55                     56                     57
                      A                      A                      A
 Frequencies --   1480.7112              1492.4371              1515.5469
 Red. masses --      1.0493                 2.3974                 3.5927
 Frc consts  --      1.3555                 3.1462                 4.8620
 IR Inten    --     13.6841                51.6318               703.0693

                     58                     59                     60
                      A                      A                      A
 Frequencies --   1519.2347              1555.9515              1629.6365
 Red. masses --      2.9926                 3.6098                 5.5122
 Frc consts  --      4.0696                 5.1491                 8.6249
 IR Inten    --     38.6100                36.4039               113.6303

                     61                     62                     63
                      A                      A                      A
 Frequencies --   1652.5411              1666.2808              3107.2201
 Red. masses --      6.4926                 6.0615                 1.0290
 Frc consts  --     10.4465                 9.9157                 5.8537
 IR Inten    --    108.3505                67.7247                 2.0808

                     64                     65                     66
                      A                      A                      A
 Frequencies --   3207.4349              3213.0138              3213.7352
 Red. masses --      1.0859                 1.1076                 1.0886
 Frc consts  --      6.5819                 6.7366                 6.6241
 IR Inten    --      1.6741                 2.0351                 6.6114

                     67                     68                     69
                      A                      A                      A
 Frequencies --   3221.9272              3222.0114              3229.9938
 Red. masses --      1.0927                 1.1091                 1.0961
 Frc consts  --      6.6831                 6.7840                 6.7378
 IR Inten    --     39.2863                 1.0183                38.9275

                     70                     71                     72
                      A                      A                      A
 Frequencies --   3238.6694              3319.2856              3531.4460
 Red. masses --      1.0946                 1.0988                 1.0777
 Frc consts  --      6.7645                 7.1325                 7.9188
 IR Inten    --     11.5158                 1.9629               227.7235

 - Thermochemistry -
 -------------------
 Temperature   298.150 Kelvin.  Pressure   1.00000 Atm.
 Atom     1 has atomic number  8 and mass  15.99491

 Molecular mass:   238.04121 amu.
 Principal axes and moments of inertia in atomic units:
                           1         2         3
     Eigenvalues --   952.395829803.97329**********
           X            0.99996   0.00445   0.00747
           Y           -0.00458   0.99982   0.01820
           Z           -0.00739  -0.01824   0.99981
 This molecule is an asymmetric top.
 Rotational symmetry number  1.
 Warning -- assumption of classical behavior for rotation
           may cause significant error
 Rotational temperatures (Kelvin)      0.09094     0.00883     0.00839
 Rotational constants (GHZ):           1.89495     0.18408     0.17477
 Zero-point vibrational energy     510014.0 (Joules/Mol)
                                  121.89627 (Kcal/Mol)
 Warning -- explicit consideration of  20 degrees of freedom as
           vibrations may cause significant error
 Vibrational temperatures:     36.07    44.83    91.66   119.09   140.13
          (Kelvin)            187.90   314.09   321.38   345.01   388.60
                              434.13   492.41   501.06   557.89   565.83
                              591.97   663.99   691.59   716.82   755.22
                              907.26   952.21   996.19  1010.05  1016.31
                             1038.91  1121.07  1145.54  1159.63  1225.25
                             1241.70  1358.34  1385.11  1401.71  1415.98
                             1454.98  1459.41  1461.48  1463.47  1509.43
                             1539.92  1570.13  1597.06  1607.61  1710.46
                             1729.67  1756.94  1853.89  1865.81  1932.40
                             1969.11  1987.72  1993.22  2114.01  2130.41
                             2147.28  2180.53  2185.84  2238.67  2344.68
                             2377.64  2397.41  4470.60  4614.78  4622.81
                             4623.85  4635.63  4635.76  4647.24  4659.72
                             4775.71  5080.96

 Zero-point correction=                           0.194254 (Hartree/Particle)
 Thermal correction to Energy=                    0.208535
 Thermal correction to Enthalpy=                  0.209480
 Thermal correction to Gibbs Free Energy=         0.151085
 Sum of electronic and zero-point Energies=          -1120.164567
 Sum of electronic and thermal Energies=             -1120.150286
 Sum of electronic and thermal Enthalpies=           -1120.149341
 Sum of electronic and thermal Free Energies=        -1120.207736

                     E (Thermal)             CV                S
                      KCal/Mol        Cal/Mol-Kelvin    Cal/Mol-Kelvin
 Total                  130.858             53.981            122.902
 Electronic               0.000              0.000              0.000
 Translational            0.889              2.981             42.303
 Rotational               0.889              2.981             32.933
 Vibrational            129.080             48.019             47.665
 Vibration     1          0.593              1.985              6.186
 Vibration     2          0.594              1.983              5.754
 Vibration     3          0.597              1.972              4.339
 Vibration     4          0.600              1.961              3.824
 Vibration     5          0.603              1.951              3.506
 Vibration     6          0.612              1.923              2.937
 Vibration     7          0.646              1.813              1.973
 Vibration     8          0.649              1.805              1.932
 Vibration     9          0.657              1.780              1.804
 Vibration    10          0.674              1.728              1.596
 Vibration    11          0.694              1.670              1.407
 Vibration    12          0.721              1.591              1.202
 Vibration    13          0.726              1.579              1.174
 Vibration    14          0.756              1.496              1.009
 Vibration    15          0.760              1.485              0.988
 Vibration    16          0.775              1.445              0.922
 Vibration    17          0.819              1.335              0.762
 Vibration    18          0.837              1.293              0.708
 Vibration    19          0.854              1.254              0.663
 Vibration    20          0.880              1.195              0.599

                           ! Non-Optimized Parameters !
 Normal termination of Gaussian 16 at Tue Sep 22 18:39:58 2020.

 ----------------------------------------------------------------------
 #p b3lyp/6-31G(d) scrf=(iefpcm,read,solvent=water) geom=allcheck guess
 =read
 ----------------------------------------------------------------------

 Structure from the checkpoint file:  "SM41_m0.n.5.pdb.xyz.mst.n.w.chk"
 -------------------
 SM41_m0.n.5.pdb.xyz
 -------------------
 Charge =  0 Multiplicity = 1

 SCF Done:  E(RB3LYP) =  -1120.35882076     A.U. after    4 cycles
 Normal termination of Gaussian 16 at Tue Sep 22 18:40:15 2020.

 -----------------------------
 #p B3LYP/6-31G* geom=allcheck
 -----------------------------

 Structure from the checkpoint file:  "SM41_m0.n.5.pdb.xyz.mst.n.w.chk"
 -------------------
 SM41_m0.n.5.pdb.xyz
 -------------------
 Charge =  0 Multiplicity = 1

 SCF Done:  E(RB3LYP) =  -1120.33574113     A.U. after   15 cycles
 Normal termination of Gaussian 16 at Tue Sep 22 18:40:40 2020.
 Gaussian 16:  ES64L-G16RevB.01 20-Dec-2017

 ----------------------------------------------------------------------
 #p mp2/aug-cc-pVDZ scf=(MaxCycle=2000,NoVarAcc,NoIncFock) maxdisk=120G
 B geom=allcheck
 ----------------------------------------------------------------------

 Structure from the checkpoint file:  "SM41_m0.n.5.pdb.xyz.mst.n.w.chk"
 -------------------
 SM41_m0.n.5.pdb.xyz
 -------------------
 Charge =  0 Multiplicity = 1

                         Standard orientation:
 ---------------------------------------------------------------------
 Center     Atomic      Atomic             Coordinates (Angstroms)
 Number     Number       Type             X           Y           Z
 ---------------------------------------------------------------------
      1          8           0       -3.380403   -0.526219    1.502261
      2         16           0       -3.606894    0.120456    0.203350
      3          7           0       -2.193558    0.867408   -0.363909
      4          6           0       -0.928599    0.302230   -0.230232
      5          7           0       -0.759920   -1.005600   -0.166137
      6          8           0        0.629858   -1.181363   -0.084683
      7          6           0        1.243431    0.026361   -0.112433
      8          6           0        2.699833    0.039639   -0.033707
      9          6           0        3.396721    1.258590   -0.077928
     10          6           0        4.786425    1.271890    0.001272
     11          6           0        5.495327    0.073778    0.124590
     12          6           0        4.806826   -1.140733    0.168190
     13          6           0        3.416800   -1.161124    0.089748
     14          6           0        0.301150    1.013040   -0.204329
     15          6           0       -3.880786   -1.148643   -1.024699
     16          8           0       -4.626552    1.171661    0.099547
     17          1           0       -2.242231    1.881901   -0.263260
     18          1           0        2.850276    2.190436   -0.174060
     19          1           0        5.316958    2.217397   -0.033356
     20          1           0        6.578200    0.087420    0.186333
     21          1           0        5.352614   -2.073145    0.264077
     22          1           0        2.878957   -2.100900    0.124464
     23          1           0        0.444255    2.080261   -0.243322
     24          1           0       -2.992187   -1.779089   -1.049078
     25          1           0       -4.053249   -0.668432   -1.986558
     26          1           0       -4.754942   -1.718593   -0.708351
 ---------------------------------------------------------------------

 SCF Done:  E(RHF) =  -1115.47236774     A.U. after   17 cycles
 E2 =    -0.2451611975D+01 EUMP2 =    -0.11179239797138D+04

 The electronic state is 1-A.
 Alpha  occ. eigenvalues --  -92.23434 -20.66111 -20.56512 -20.56002 -15.64066
 Alpha  occ. eigenvalues --  -15.62772 -11.35121 -11.34898 -11.28641 -11.27926
 Alpha  occ. eigenvalues --  -11.27194 -11.26749 -11.26703 -11.26391 -11.26215
 Alpha  occ. eigenvalues --  -11.25946  -9.20226  -6.88742  -6.88733  -6.88587
 Alpha  occ. eigenvalues --   -1.50169  -1.46321  -1.34001  -1.28770  -1.18778
 Alpha  occ. eigenvalues --   -1.15001  -1.10524  -1.04961  -1.04168  -1.03394
 Alpha  occ. eigenvalues --   -0.89816  -0.88394  -0.85472  -0.82335  -0.79348
 Alpha  occ. eigenvalues --   -0.75991  -0.72410  -0.70354  -0.68347  -0.67319
 Alpha  occ. eigenvalues --   -0.66777  -0.65665  -0.65258  -0.63518  -0.61629
 Alpha  occ. eigenvalues --   -0.60988  -0.60683  -0.59963  -0.57416  -0.55681
 Alpha  occ. eigenvalues --   -0.53195  -0.52836  -0.51628  -0.51169  -0.49252
 Alpha  occ. eigenvalues --   -0.48607  -0.46732  -0.46476  -0.41566  -0.39487
 Alpha  occ. eigenvalues --   -0.35925  -0.32900
 Alpha virt. eigenvalues --    0.02413   0.03109   0.03752   0.04355   0.04815
 Alpha virt. eigenvalues --    0.05033   0.05975   0.06171   0.06763   0.07941
 Alpha virt. eigenvalues --    0.08982   0.09399   0.09685   0.09942   0.10271

 Mulliken charges:
               1
     1  O   -1.161105
     2  S    2.742335
     3  N   -0.957312
     4  C   -0.237371
     5  N   -0.260037
     6  O   -1.081113
     7  C    0.215203
     8  C    1.450149
     9  C    0.566497
    10  C    0.036324
    11  C    0.514832
    12  C    0.209781
    13  C    0.377302
    14  C    1.741628
    15  C    0.110655
    16  O   -1.144159
    17  H   -0.066645
    18  H   -0.580963
    19  H   -0.478392
    20  H   -0.431890
    21  H   -0.439253
    22  H   -0.654295
    23  H   -0.556528
    24  H    0.039800
    25  H    0.020770
    26  H    0.023784
 Sum of Mulliken charges =  -0.00000

 Dipole moment (field-independent basis, Debye):
    X=              5.1121    Y=              1.4441    Z=             -3.4511  Tot=              6.3347
 Quadrupole moment (field-independent basis, Debye-Ang):
   XX=            -97.2400   YY=            -92.6510   ZZ=           -108.5577
   XY=              8.8311   XZ=             14.1190   YZ=              2.0602

 Normal termination of Gaussian 16 at Tue Sep 22 18:55:05 2020.
