 Gaussian 16, Revision B.01,

 ----------------------------------------------------------------------
 #p b3lyp/6-31G(d) opt freq NoSymm scf=(MaxCycle=2000,NoVarAcc,NoIncFoc
 k) scrf=(iefpcm,read,solvent=water)
 ----------------------------------------------------------------------

 -------------------
 SM41_m0.n.7.pdb.xyz
 -------------------
 Symbolic Z-matrix:
 Charge =  0 Multiplicity = 1

 SCF Done:  E(RB3LYP) =  -1120.35962376     A.U. after   13 cycles
 SCF Done:  E(RB3LYP) =  -1120.35962578     A.U. after    9 cycles
 SCF Done:  E(RB3LYP) =  -1120.35962890     A.U. after    8 cycles
 SCF Done:  E(RB3LYP) =  -1120.35963191     A.U. after    7 cycles
 SCF Done:  E(RB3LYP) =  -1120.35963311     A.U. after    7 cycles
 SCF Done:  E(RB3LYP) =  -1120.35963434     A.U. after    7 cycles
 SCF Done:  E(RB3LYP) =  -1120.35963492     A.U. after    7 cycles
 SCF Done:  E(RB3LYP) =  -1120.35963523     A.U. after    7 cycles
 Optimization completed.
    -- Stationary point found.
 Normal termination of Gaussian 16 at Tue Sep 22 18:14:50 2020.

 --------------------------------------------------------------------
 #P Geom=AllCheck Guess=TCheck SCRF=Check GenChk RB3LYP/6-31G(d) Freq
 --------------------------------------------------------------------

 Structure from the checkpoint file:  "SM41_m0.n.7.pdb.xyz.mst.n.w.chk"
 -------------------
 SM41_m0.n.7.pdb.xyz
 -------------------
 Charge =  0 Multiplicity = 1

 SCF Done:  E(RB3LYP) =  -1120.35963523     A.U. after    1 cycles

  Exact polarizability: 294.338 -14.311 197.438  12.446   9.101  92.487
 Approx polarizability: 316.463 -14.999 248.171  18.651  14.637 108.417

                      1                      2                      3
                      A                      A                      A
 Frequencies --     30.7621                39.4306                62.3032
 Red. masses --      4.0575                 5.3811                 6.7010
 Frc consts  --      0.0023                 0.0049                 0.0153
 IR Inten    --      0.8566                 7.0377                10.3322

                      4                      5                      6
                      A                      A                      A
 Frequencies --     71.4860                98.9602               146.8464
 Red. masses --      5.7503                 4.8607                 6.0480
 Frc consts  --      0.0173                 0.0280                 0.0768
 IR Inten    --      8.1420                 3.4903                 7.4299

                      7                      8                      9
                      A                      A                      A
 Frequencies --    218.3011               236.3316               254.4491
 Red. masses --      4.3398                 1.1510                 4.5818
 Frc consts  --      0.1219                 0.0379                 0.1748
 IR Inten    --      0.4260                 0.9362                 2.9268

                     10                     11                     12
                      A                      A                      A
 Frequencies --    285.3951               305.7754               331.8831
 Red. masses --      5.2066                 5.6890                 4.2078
 Frc consts  --      0.2499                 0.3134                 0.2731
 IR Inten    --      3.6786                 6.0532                 0.8122

                     13                     14                     15
                      A                      A                      A
 Frequencies --    382.2438               388.7751               411.5683
 Red. masses --      5.3553                 7.4774                 2.9526
 Frc consts  --      0.4610                 0.6659                 0.2947
 IR Inten    --     12.7241                10.4769                 0.0347

                     16                     17                     18
                      A                      A                      A
 Frequencies --    458.5093               481.1744               499.8151
 Red. masses --      5.5626                 7.0110                 4.0697
 Frc consts  --      0.6890                 0.9564                 0.5990
 IR Inten    --      2.3928                52.6570                 8.3780

                     19                     20                     21
                      A                      A                      A
 Frequencies --    507.4098               552.6036               630.3812
 Red. masses --      2.7485                 2.6933                 6.4353
 Frc consts  --      0.4169                 0.4846                 1.5067
 IR Inten    --    120.8820               208.3365                 0.1387

                     22                     23                     24
                      A                      A                      A
 Frequencies --    665.3493               685.9857               703.9406
 Red. masses --      7.7377                 6.1168                 1.7330
 Frc consts  --      2.0182                 1.6959                 0.5060
 IR Inten    --      2.2050                20.5264                44.5279

                     25                     26                     27
                      A                      A                      A
 Frequencies --    710.5853               740.3725               779.5973
 Red. masses --      4.1219                 5.8448                 4.0150
 Frc consts  --      1.2262                 1.8876                 1.4377
 IR Inten    --     22.8955               124.0417                11.5343

                     28                     29                     30
                      A                      A                      A
 Frequencies --    786.3297               820.4583               863.5849
 Red. masses --      1.6272                 1.6360                 1.2699
 Frc consts  --      0.5928                 0.6488                 0.5580
 IR Inten    --     70.1761                25.5694                 1.6761

                     31                     32                     33
                      A                      A                      A
 Frequencies --    865.1843               943.6538               959.1138
 Red. masses --      4.0752                 1.3929                 9.9979
 Frc consts  --      1.7973                 0.7308                 5.4187
 IR Inten    --    116.9242                 2.9834                12.4864

                     34                     35                     36
                      A                      A                      A
 Frequencies --    965.6165               984.8852              1014.7538
 Red. masses --     10.0634                 1.3519                 1.4059
 Frc consts  --      5.5285                 0.7726                 0.8529
 IR Inten    --     63.9369                 0.0271                88.3340

                     37                     38                     39
                      A                      A                      A
 Frequencies --   1015.0046              1016.5649              1019.7653
 Red. masses --      1.2710                 5.6893                 1.3467
 Frc consts  --      0.7715                 3.4640                 0.8251
 IR Inten    --      2.3142                 1.0024                 6.5083

                     40                     41                     42
                      A                      A                      A
 Frequencies --   1042.9700              1053.8213              1079.7123
 Red. masses --      2.6632                 2.8906                 2.4246
 Frc consts  --      1.7068                 1.8913                 1.6654
 IR Inten    --     20.8734                36.0388                 6.1038

                     43                     44                     45
                      A                      A                      A
 Frequencies --   1109.5053              1123.8043              1190.0152
 Red. masses --      1.5803                11.0365                 1.0965
 Frc consts  --      1.1462                 8.2122                 0.9148
 IR Inten    --     21.6911               390.7951                 0.1270

                     46                     47                     48
                      A                      A                      A
 Frequencies --   1203.0822              1220.8051              1292.1978
 Red. masses --      1.1796                 2.0485                 4.8542
 Frc consts  --      1.0060                 1.7988                 4.7755
 IR Inten    --      5.1528                 6.2773                64.9347

                     49                     50                     51
                      A                      A                      A
 Frequencies --   1302.3662              1354.0882              1368.3773
 Red. masses --      6.6383                 3.3791                 1.9639
 Frc consts  --      6.6340                 3.6504                 2.1666
 IR Inten    --    216.6940                31.7939                 4.0460

                     52                     53                     54
                      A                      A                      A
 Frequencies --   1389.4986              1397.4628              1479.7156
 Red. masses --      1.7404                 1.1914                 1.1004
 Frc consts  --      1.9798                 1.3708                 1.4196
 IR Inten    --    258.8491                19.4163                11.3583

                     55                     56                     57
                      A                      A                      A
 Frequencies --   1483.5662              1485.6654              1504.1932
 Red. masses --      1.7411                 1.3950                 3.3408
 Frc consts  --      2.2578                 1.8141                 4.4535
 IR Inten    --    125.4591                63.2200               285.0799

                     58                     59                     60
                      A                      A                      A
 Frequencies --   1519.1241              1554.1555              1627.8423
 Red. masses --      2.7367                 3.2244                 5.5142
 Frc consts  --      3.7210                 4.5887                 8.6092
 IR Inten    --     40.3184                68.6731               143.0285

                     61                     62                     63
                      A                      A                      A
 Frequencies --   1651.3413              1665.1823              3109.1793
 Red. masses --      6.4950                 6.0045                 1.0292
 Frc consts  --     10.4353                 9.8096                 5.8620
 IR Inten    --    113.4234                62.7208                 0.0726

                     64                     65                     66
                      A                      A                      A
 Frequencies --   3208.0792              3210.9435              3213.7719
 Red. masses --      1.0860                 1.1074                 1.0887
 Frc consts  --      6.5850                 6.7270                 6.6250
 IR Inten    --      3.0231                 0.6664                 7.6179

                     67                     68                     69
                      A                      A                      A
 Frequencies --   3222.2588              3223.0333              3230.9509
 Red. masses --      1.1089                 1.0926                 1.0957
 Frc consts  --      6.7834                 6.6869                 6.7390
 IR Inten    --      0.0050                36.8134                39.1234

                     70                     71                     72
                      A                      A                      A
 Frequencies --   3238.1093              3339.5841              3515.7626
 Red. masses --      1.0949                 1.0986                 1.0762
 Frc consts  --      6.7642                 7.2187                 7.8374
 IR Inten    --     12.1757                 9.2180               189.2714

 - Thermochemistry -
 -------------------
 Temperature   298.150 Kelvin.  Pressure   1.00000 Atm.
 Atom     1 has atomic number  8 and mass  15.99491

 Molecular mass:   238.04121 amu.
 Principal axes and moments of inertia in atomic units:
                           1         2         3
     Eigenvalues --  1314.999398655.060669482.85195
           X            0.99996  -0.00515  -0.00771
           Y            0.00513   0.99999  -0.00185
           Z            0.00772   0.00181   0.99997
 This molecule is an asymmetric top.
 Rotational symmetry number  1.
 Warning -- assumption of classical behavior for rotation
           may cause significant error
 Rotational temperatures (Kelvin)      0.06587     0.01001     0.00913
 Rotational constants (GHZ):           1.37243     0.20852     0.19032
 Zero-point vibrational energy     511674.6 (Joules/Mol)
                                  122.29317 (Kcal/Mol)
 Warning -- explicit consideration of  20 degrees of freedom as
           vibrations may cause significant error
 Vibrational temperatures:     44.26    56.73    89.64   102.85   142.38
          (Kelvin)            211.28   314.09   340.03   366.10   410.62
                              439.94   477.51   549.96   559.36   592.15
                              659.69   692.30   719.12   730.05   795.07
                              906.98   957.29   986.98  1012.81  1022.37
                             1065.23  1121.67  1131.35  1180.46  1242.51
                             1244.81  1357.71  1379.95  1389.31  1417.03
                             1460.00  1460.37  1462.61  1467.21  1500.60
                             1516.21  1553.47  1596.33  1616.90  1712.17
                             1730.97  1756.47  1859.18  1873.81  1948.23
                             1968.79  1999.18  2010.64  2128.98  2134.52
                             2137.54  2164.20  2185.68  2236.08  2342.10
                             2375.91  2395.83  4473.42  4615.71  4619.83
                             4623.90  4636.11  4637.23  4648.62  4658.92
                             4804.92  5058.40

 Zero-point correction=                           0.194887 (Hartree/Particle)
 Thermal correction to Energy=                    0.208916
 Thermal correction to Enthalpy=                  0.209861
 Thermal correction to Gibbs Free Energy=         0.152197
 Sum of electronic and zero-point Energies=          -1120.164749
 Sum of electronic and thermal Energies=             -1120.150719
 Sum of electronic and thermal Enthalpies=           -1120.149775
 Sum of electronic and thermal Free Energies=        -1120.207438

                     E (Thermal)             CV                S
                      KCal/Mol        Cal/Mol-Kelvin    Cal/Mol-Kelvin
 Total                  131.097             53.474            121.363
 Electronic               0.000              0.000              0.000
 Translational            0.889              2.981             42.303
 Rotational               0.889              2.981             33.045
 Vibrational            129.320             47.512             46.014
 Vibration     1          0.594              1.984              5.780
 Vibration     2          0.594              1.981              5.287
 Vibration     3          0.597              1.972              4.383
 Vibration     4          0.598              1.968              4.112
 Vibration     5          0.604              1.950              3.475
 Vibration     6          0.617              1.906              2.713
 Vibration     7          0.646              1.813              1.973
 Vibration     8          0.655              1.785              1.830
 Vibration     9          0.665              1.755              1.700
 Vibration    10          0.683              1.701              1.501
 Vibration    11          0.696              1.663              1.385
 Vibration    12          0.714              1.612              1.251
 Vibration    13          0.752              1.508              1.030
 Vibration    14          0.757              1.494              1.005
 Vibration    15          0.776              1.445              0.921
 Vibration    16          0.817              1.342              0.770
 Vibration    17          0.837              1.292              0.707
 Vibration    18          0.855              1.250              0.659
 Vibration    19          0.863              1.234              0.640
 Vibration    20          0.908              1.134              0.539

                           ! Non-Optimized Parameters !
 Normal termination of Gaussian 16 at Tue Sep 22 18:20:41 2020.

 ----------------------------------------------------------------------
 #p b3lyp/6-31G(d) scrf=(iefpcm,read,solvent=water) geom=allcheck guess
 =read
 ----------------------------------------------------------------------

 Structure from the checkpoint file:  "SM41_m0.n.7.pdb.xyz.mst.n.w.chk"
 -------------------
 SM41_m0.n.7.pdb.xyz
 -------------------
 Charge =  0 Multiplicity = 1

 SCF Done:  E(RB3LYP) =  -1120.35963533     A.U. after    3 cycles
 Normal termination of Gaussian 16 at Tue Sep 22 18:20:57 2020.

 -----------------------------
 #p B3LYP/6-31G* geom=allcheck
 -----------------------------

 Structure from the checkpoint file:  "SM41_m0.n.7.pdb.xyz.mst.n.w.chk"
 -------------------
 SM41_m0.n.7.pdb.xyz
 -------------------
 Charge =  0 Multiplicity = 1

 SCF Done:  E(RB3LYP) =  -1120.33779910     A.U. after   15 cycles
 Normal termination of Gaussian 16 at Tue Sep 22 18:21:26 2020.
 Gaussian 16:  ES64L-G16RevB.01 20-Dec-2017

 ----------------------------------------------------------------------
 #p mp2/aug-cc-pVDZ scf=(MaxCycle=2000,NoVarAcc,NoIncFock) maxdisk=120G
 B geom=allcheck
 ----------------------------------------------------------------------

 Structure from the checkpoint file:  "SM41_m0.n.7.pdb.xyz.mst.n.w.chk"
 -------------------
 SM41_m0.n.7.pdb.xyz
 -------------------
 Charge =  0 Multiplicity = 1

                         Standard orientation:
 ---------------------------------------------------------------------
 Center     Atomic      Atomic             Coordinates (Angstroms)
 Number     Number       Type             X           Y           Z
 ---------------------------------------------------------------------
      1          8           0       -4.693198   -0.184723   -0.545299
      2         16           0       -3.348453   -0.471583   -0.037489
      3          7           0       -2.409181    0.835260   -0.556812
      4          6           0       -1.033507    0.910231   -0.316140
      5          7           0       -0.492720    2.089750   -0.069424
      6          8           0        0.882926    1.834142    0.035482
      7          6           0        1.113606    0.508957   -0.131369
      8          6           0        2.495448    0.049712   -0.043309
      9          6           0        2.790359   -1.318206   -0.169829
     10          6           0        4.107879   -1.759867   -0.086872
     11          6           0        5.144040   -0.846023    0.123214
     12          6           0        4.856350    0.514729    0.250538
     13          6           0        3.540554    0.963919    0.168203
     14          6           0       -0.071098   -0.132242   -0.366054
     15          6           0       -3.373617   -0.411658    1.754921
     16          8           0       -2.649871   -1.691141   -0.457136
     17          1           0       -2.903446    1.723002   -0.457997
     18          1           0        1.989158   -2.031062   -0.330601
     19          1           0        4.326529   -2.817735   -0.185383
     20          1           0        6.169494   -1.193197    0.187697
     21          1           0        5.657418    1.227537    0.413784
     22          1           0        3.314764    2.019118    0.265713
     23          1           0       -0.253227   -1.175607   -0.552774
     24          1           0       -3.827387    0.529298    2.063582
     25          1           0       -2.351585   -0.496112    2.122198
     26          1           0       -3.972092   -1.258514    2.093073
 ---------------------------------------------------------------------

 SCF Done:  E(RHF) =  -1115.47569683     A.U. after   16 cycles
 E2 =    -0.2451886701D+01 EUMP2 =    -0.11179275835320D+04

 The electronic state is 1-A.
 Alpha  occ. eigenvalues --  -92.24538 -20.65993 -20.57434 -20.57304 -15.64477
 Alpha  occ. eigenvalues --  -15.63167 -11.34948 -11.34380 -11.30476 -11.27644
 Alpha  occ. eigenvalues --  -11.26807 -11.26471 -11.26457 -11.26078 -11.25973
 Alpha  occ. eigenvalues --  -11.25129  -9.21312  -6.89846  -6.89814  -6.89683
 Alpha  occ. eigenvalues --   -1.50083  -1.47559  -1.35427  -1.28959  -1.18492
 Alpha  occ. eigenvalues --   -1.15065  -1.10118  -1.05875  -1.03867  -1.03191
 Alpha  occ. eigenvalues --   -0.89553  -0.88439  -0.85240  -0.81892  -0.80853
 Alpha  occ. eigenvalues --   -0.75329  -0.73470  -0.69932  -0.69536  -0.67599
 Alpha  occ. eigenvalues --   -0.66847  -0.66055  -0.65071  -0.63454  -0.62519
 Alpha  occ. eigenvalues --   -0.61406  -0.61161  -0.60153  -0.57453  -0.54739
 Alpha  occ. eigenvalues --   -0.52767  -0.52603  -0.51431  -0.51317  -0.50814
 Alpha  occ. eigenvalues --   -0.49087  -0.48312  -0.47800  -0.41255  -0.39730
 Alpha  occ. eigenvalues --   -0.35641  -0.32547
 Alpha virt. eigenvalues --    0.02791   0.03125   0.03844   0.04619   0.04822
 Alpha virt. eigenvalues --    0.05340   0.05637   0.06202   0.06419   0.07311
 Alpha virt. eigenvalues --    0.08871   0.09366   0.09713   0.10047   0.11121

 Mulliken charges:
               1
     1  O   -1.124768
     2  S    2.712888
     3  N   -0.889202
     4  C   -0.002287
     5  N   -0.302631
     6  O   -1.085689
     7  C    0.162641
     8  C    1.464281
     9  C    0.539745
    10  C    0.084563
    11  C    0.513149
    12  C    0.257318
    13  C    0.331181
    14  C    1.644636
    15  C    0.056168
    16  O   -1.181062
    17  H   -0.071773
    18  H   -0.571578
    19  H   -0.484523
    20  H   -0.434111
    21  H   -0.440177
    22  H   -0.663046
    23  H   -0.600495
    24  H    0.025460
    25  H    0.017471
    26  H    0.041842
 Sum of Mulliken charges =  -0.00000

 Dipole moment (field-independent basis, Debye):
    X=              3.2342    Y=             -0.6821    Z=              3.8285  Tot=              5.0579
 Quadrupole moment (field-independent basis, Debye-Ang):
   XX=            -96.4009   YY=           -103.9580   ZZ=           -101.2856
   XY=             -8.4951   XZ=            -14.2753   YZ=             -2.1024

 Normal termination of Gaussian 16 at Tue Sep 22 18:49:42 2020.
